************************************************************
This is node17.cluster of cluster Pinconning.
Date: Mon Mar  8 10:20:34 PST 2021
************************************************************
 Set GAUSS_MDEF to "32GB".
 Set GAUSS_PDEF to "12".
 Entering Gaussian System, Link 0=gdv
 Initial command:
 /opt/gaussian/gdv-20180628-i14+/gdv/l1.exe "/tmp/735517.1.allnodes.q/Gau-29769.inp" -scrdir="/tmp/735517.1.allnodes.q/"
 Default is to use a total of  12 processors:
                               12 via shared-memory
                                1 via Linda
 Entering Link 1 = /opt/gaussian/gdv-20180628-i14+/gdv/l1.exe PID=     29771.
  
 Copyright (c) 1988-2018, Gaussian, Inc.  All Rights Reserved.
  
 This is the private, development version of
 the Gaussian(R) DV system of programs. It is based on
 the Gaussian(R) 16 system (copyright 2016, Gaussian, Inc.),
 the Gaussian(R) 09 system (copyright 2009, Gaussian, Inc.),
 the Gaussian(R) 03 system (copyright 2003, Gaussian, Inc.),
 the Gaussian(R) 98 system (copyright 1998, Gaussian, Inc.),
 the Gaussian(R) 94 system (copyright 1995, Gaussian, Inc.),
 the Gaussian 92(TM) system (copyright 1992, Gaussian, Inc.),
 the Gaussian 90(TM) system (copyright 1990, Gaussian, Inc.),
 the Gaussian 88(TM) system (copyright 1988, Gaussian, Inc.),
 the Gaussian 86(TM) system (copyright 1986, Carnegie Mellon
 University), and the Gaussian 82(TM) system (copyright 1983,
 Carnegie Mellon University). Gaussian is a federally registered
 trademark of Gaussian, Inc.
  
 This software contains proprietary and confidential information,
 including trade secrets, belonging to Gaussian, Inc.
  
 This software is provided under written license and may be
 used, copied, transmitted, or stored only in accord with that
 written license.
  
 The following legend is applicable only to US Government
 contracts under FAR:
  
                    RESTRICTED RIGHTS LEGEND
  
 Use, reproduction and disclosure by the US Government is
 subject to restrictions as set forth in subparagraphs (a)
 and (c) of the Commercial Computer Software - Restricted
 Rights clause in FAR 52.227-19.
  
 Gaussian, Inc.
 340 Quinnipiac St., Bldg. 40, Wallingford CT 06492
  
  
 ---------------------------------------------------------------
 Warning -- This program may not be used in any manner that
 competes with the business of Gaussian, Inc. or will provide
 assistance to any competitor of Gaussian, Inc.  The licensee
 of this program is prohibited from giving any competitor of
 Gaussian, Inc. access to this program.  By using this program,
 the user acknowledges that Gaussian, Inc. is engaged in the
 business of creating and licensing software in the field of
 computational chemistry and represents and warrants to the
 licensee that it is not a competitor of Gaussian, Inc. and that
 it will not use this program in any manner prohibited above.
 ---------------------------------------------------------------
  

 Cite this work as:
 Gaussian Development Version, Revision I.14+,
 M. J. Frisch, G. W. Trucks, H. B. Schlegel, G. E. Scuseria, 
 M. A. Robb, J. R. Cheeseman, G. Scalmani, V. Barone, 
 G. A. Petersson, H. Nakatsuji, X. Li, M. Caricato, A. V. Marenich, 
 J. Bloino, B. G. Janesko, R. Gomperts, B. Mennucci, H. P. Hratchian, 
 J. V. Ortiz, A. F. Izmaylov, J. L. Sonnenberg, D. Williams-Young, 
 F. Ding, F. Lipparini, F. Egidi, J. Goings, B. Peng, A. Petrone, 
 T. Henderson, D. Ranasinghe, V. G. Zakrzewski, J. Gao, N. Rega, 
 G. Zheng, W. Liang, M. Hada, M. Ehara, K. Toyota, R. Fukuda, 
 J. Hasegawa, M. Ishida, T. Nakajima, Y. Honda, O. Kitao, H. Nakai, 
 T. Vreven, K. Throssell, J. A. Montgomery, Jr., J. E. Peralta, 
 F. Ogliaro, M. J. Bearpark, J. J. Heyd, E. N. Brothers, K. N. Kudin, 
 V. N. Staroverov, T. A. Keith, R. Kobayashi, J. Normand, 
 K. Raghavachari, A. P. Rendell, J. C. Burant, S. S. Iyengar, 
 J. Tomasi, M. Cossi, J. M. Millam, M. Klene, C. Adamo, R. Cammi, 
 J. W. Ochterski, R. L. Martin, K. Morokuma, O. Farkas, 
 J. B. Foresman, and D. J. Fox, Gaussian, Inc., Wallingford CT, 2018.
 
 *******************************************
 Gaussian DV:  ES64L-GDVRevI.14+ 23-Jun-2018
                  8-Mar-2021 
 *******************************************
 %chk=casscf24_s15_heh+_6-31g.chk
 %subst l510 /home/kranka/proj_isborn/gdv_links_KR/gdvi14+/l510
 ----------------------------------------------------------------------
 #P CASSCF(2,4,fulldiag,NRoot=16,SaveGEDensities)/6-31g scf(tight,maxcy
 c=100) nosymm scf(tight,maxcyc=1500,conventional) iop(3/33=6) extralin
 ks(l316,l308) noraff symm=noint iop(3/33=3) pop(full) iop(6/8=1,3/33=3
 ,3/36=1,4/33=3,5/33=3,6/33=3,9/33=3,5/72=-3)
 ----------------------------------------------------------------------
 1/38=1,172=1/1;
 2/12=2,15=1,17=6,18=5,40=1/2;
 3/5=1,6=6,25=20,28=1,33=3,36=1,116=101/1,2,3,20,16,8;
 4/17=2,18=4,21=10,33=3,43=1/1,5;
 5/5=1,7=1500,17=1000000,28=16,29=1,32=4,33=3,72=-3/10;
 6/7=3,8=1,28=1,33=3/1;
 99/5=1,9=1/99;
 Leave Link    1 at Mon Mar  8 10:20:35 2021, MaxMem=           0 cpu:               1.6 elap:               0.1
 (Enter /opt/gaussian/gdv-20180628-i14+/gdv/l101.exe)
 ----------------------------------------------------------------------
 CAS(2,2)SCF/STO-3G, S2 state single point, pert. calc. (all density ma
 trices printed)
 ----------------------------------------------------------------------
 Symbolic Z-matrix:
 Charge =  1 Multiplicity = 1
 H                     0.        0.       -0.386 
 He                    0.        0.        0.386 
 
 ITRead=  0  0
 MicOpt= -1 -1
 NAtoms=      2 NQM=        2 NQMF=       0 NMMI=      0 NMMIF=      0
                NMic=       0 NMicF=      0.
                    Isotopes and Nuclear Properties:
 (Nuclear quadrupole moments (NQMom) in fm**2, nuclear magnetic moments (NMagM)
  in nuclear magnetons)

  Atom         1           2
 IAtWgt=           1           4
 AtmWgt=   1.0078250   4.0026033
 NucSpn=           1           0
 AtZEff=  -0.0000000  -0.0000000
 NQMom=    0.0000000   0.0000000
 NMagM=    2.7928460   0.0000000
 AtZNuc=   1.0000000   2.0000000
 Leave Link  101 at Mon Mar  8 10:20:35 2021, MaxMem=  4294967296 cpu:               1.2 elap:               0.1
 (Enter /opt/gaussian/gdv-20180628-i14+/gdv/l202.exe)
                          Input orientation:                          
 ---------------------------------------------------------------------
 Center     Atomic      Atomic             Coordinates (Angstroms)
 Number     Number       Type             X           Y           Z
 ---------------------------------------------------------------------
      1          1           0        0.000000    0.000000   -0.386000
      2          2           0        0.000000    0.000000    0.386000
 ---------------------------------------------------------------------
 Symmetry turned off by external request.
 Stoichiometry    HHe(1+)
 Framework group  C*V[C*(HHe)]
 Deg. of freedom     1
 Full point group                 C*V     NOp   4
 Rotational constants (GHZ):           0.0000000        1053.2458648        1053.2458648
 Leave Link  202 at Mon Mar  8 10:20:35 2021, MaxMem=  4294967296 cpu:               0.1 elap:               0.0
 (Enter /opt/gaussian/gdv-20180628-i14+/gdv/l301.exe)
 Standard basis: 6-31G (6D, 7F)
                         Coordinates in L301:                         
 ---------------------------------------------------------------------
 Center     Atomic      Atomic             Coordinates (Angstroms)
 Number     Number       Type             X           Y           Z
 ---------------------------------------------------------------------
      1          1           0        0.000000    0.000000   -0.386000
      2          2           0        0.000000    0.000000    0.386000
 ---------------------------------------------------------------------
 FixB: optimizing general contractions.
 Ernie: Thresh=  0.10000D-02 Tol=  0.10000D-05 Strict=F.
 IA=     1 ShT= 0 ShC= 0 NL=   2 NS=   1.
         I=   1 JX=   1 NP=   3
         I=   2 JX=   2 NP=   1
 IA=     1 L=0 SC=0 ISt=    0 NBk=    0 NP=    0 IndPr=    0.
 IA=     2 ShT= 0 ShC= 0 NL=   2 NS=   1.
         I=   1 JX=   3 NP=   3
         I=   2 JX=   4 NP=   1
 IA=     2 L=0 SC=0 ISt=    0 NBk=    0 NP=    0 IndPr=    0.
 Electric field displacement of shell     1 is  0.00D+00
 Electric field displacement of shell     2 is  0.00D+00
 Electric field displacement of shell     3 is  0.00D+00
 Electric field displacement of shell     4 is  0.00D+00
 LdAtmC:  AtmChg=     1.000000     2.000000
 AtZEff=     -1.0000000     -2.0000000
     4 basis functions,     8 primitive gaussians,     4 cartesian basis functions
     1 alpha electrons        1 beta electrons
       nuclear repulsion energy         1.3709254169 Hartrees.
 IS=     1 IAt=     1 ISR=     1 T=0 IP=      1 IndIP=      1 IndIPD=      0 C=  2.149354D-01  0.000000D+00                             NZ=T
 IS=     1 IAt=     1 ISR=     1 T=0 IP=      2 IndIP=      2 IndIPD=      1 C=  3.645712D-01  0.000000D+00                             NZ=T
 IS=     1 IAt=     1 ISR=     1 T=0 IP=      3 IndIP=      3 IndIPD=      2 C=  4.150514D-01  0.000000D+00                             NZ=T
 IS=     2 IAt=     1 ISR=     2 T=0 IP=      1 IndIP=      4 IndIPD=      0 C=  1.813806D-01  0.000000D+00                             NZ=T
 IS=     3 IAt=     2 ISR=     1 T=0 IP=      1 IndIP=      5 IndIPD=      0 C=  4.414856D-01  0.000000D+00                             NZ=T
 IS=     3 IAt=     2 ISR=     1 T=0 IP=      2 IndIP=      6 IndIPD=      1 C=  6.938966D-01  0.000000D+00                             NZ=T
 IS=     3 IAt=     2 ISR=     1 T=0 IP=      3 IndIP=      7 IndIPD=      2 C=  6.649918D-01  0.000000D+00                             NZ=T
 IS=     4 IAt=     2 ISR=     2 T=0 IP=      1 IndIP=      8 IndIPD=      0 C=  2.874306D-01  0.000000D+00                             NZ=T
 IExCor=    0 DFT=F Ex=HF Corr=None ExCW=0 ScaHFX=  1.000000
 ScaDFX=  1.000000  1.000000  1.000000  1.000000
 IRadAn=      5 IRanWt=     -1 IRanGd=            0 ICorTp=0 IEmpDi=  4
 NAtoms=    2 NActive=    2 NUniq=    2 SFac= 1.00D+00 NAtFMM=   60 NAOKFM=F Big=F
 Integral buffers will be    131072 words long.
 Regular integral format.
 Two-electron integral symmetry is turned off.
 Pair potential:
 Leave Link  301 at Mon Mar  8 10:20:35 2021, MaxMem=  4294967296 cpu:               0.8 elap:               0.1
 (Enter /opt/gaussian/gdv-20180628-i14+/gdv/l302.exe)
 GetPMM: IRwPM=  824 LRwPM=    0 LPMAll=    2
 GetPCM: File not found, return IValue=0.
 NPDir=0 NMtPBC=     1 NCelOv=     1 NCel=       1 NClECP=     1 NCelD=      1
         NCelK=      1 NCelE2=     1 NClLst=     1 CellRange=     0.0.
 One-electron integrals computed using PRISM.
 Entering OneElI...
 OneElI was handed  4294967235 working-precision words.
 Calculate overlap and kinetic energy integrals
    NBasis =   4  MinDer = 0  MaxDer = 0
 Requested accuracy = 0.1000D-12
 ShPair: Thresh= 1.00D-13 NBox=     0 BxSize= 0.00D+00 RnKept= 1.46D+00
         NSMCal=                   10 NSMKep=                  10
 PrmmSu-InSpLW:  IPartL=    0 NPrtUS=   12 NPrtUL=    1 DoSpLW=F IThBeg=    0 IThEnd=   11 NThAct=   12.
 PrSmSu:  IncTry=   512 NBBP=             10 NTPThr=   100 NPartT=   12 Incr=           1 LDynOK=F GPUOK=F.
 PrsmSu:  NPrtUS=  12 ThrOK=T IAlg=1 LenDen=           0 ISkipM=0 DoSpLW=F IThBeg=    0 IThEnd=   11.
 Prism:   IPart=     0 DynPar=F LinDyn=F Incr=           1.
 PRISM was handed   357912973 working-precision words and    10 shell-pairs
 PRISM was handed   357912973 working-precision words and    10 shell-pairs
 PRISM was handed   357912973 working-precision words and    10 shell-pairs
 PRISM was handed   357912973 working-precision words and    10 shell-pairs
 PRISM was handed   357912973 working-precision words and    10 shell-pairs
 PRISM was handed   357912973 working-precision words and    10 shell-pairs
 PRISM was handed   357912973 working-precision words and    10 shell-pairs
 PRISM was handed   357912973 working-precision words and    10 shell-pairs
 PRISM was handed   357912973 working-precision words and    10 shell-pairs
 PRISM was handed   357912973 working-precision words and    10 shell-pairs
 PRISM was handed   357912973 working-precision words and    10 shell-pairs
 PRISM was handed   357912973 working-precision words and    10 shell-pairs
 IPart= 10 NShTot=           0 NBatch=           0 AvBLen=         0.0
 IPart=  7 NShTot=           0 NBatch=           0 AvBLen=         0.0
 PrsmSu-ThDecC:  IPartSL=   10    0 NPrtUSL=   12    1 IThBeg=    0 IThEnd=   11 CPU=   -1 GPU=   -1 NThAct=   12.
 IPart=  6 NShTot=           0 NBatch=           0 AvBLen=         0.0
 IPart=  9 NShTot=           0 NBatch=           0 AvBLen=         0.0
 IPart=  8 NShTot=           0 NBatch=           0 AvBLen=         0.0
 PrsmSu-ThDecC:  IPartSL=    7    0 NPrtUSL=   12    1 IThBeg=    0 IThEnd=   11 CPU=   -1 GPU=   -1 NThAct=   11.
 PrsmSu-ThDecC:  IPartSL=    9    0 NPrtUSL=   12    1 IThBeg=    0 IThEnd=   11 CPU=   -1 GPU=   -1 NThAct=   10.
 PrsmSu-ThDecC:  IPartSL=    8    0 NPrtUSL=   12    1 IThBeg=    0 IThEnd=   11 CPU=   -1 GPU=   -1 NThAct=    9.
 PrsmSu-ThDecC:  IPartSL=    6    0 NPrtUSL=   12    1 IThBeg=    0 IThEnd=   11 CPU=   -1 GPU=   -1 NThAct=    8.
 IPart=  0 NShTot=           3 NBatch=           3 AvBLen=         1.0
 PrsmSu-ThDecC:  IPartSL=    0    0 NPrtUSL=   12    1 IThBeg=    0 IThEnd=   11 CPU=   -1 GPU=   -1 NThAct=    7.
 IPart=  3 NShTot=           1 NBatch=           1 AvBLen=         1.0
 IPart=  4 NShTot=           0 NBatch=           0 AvBLen=         0.0
 PrsmSu-ThDecC:  IPartSL=    3    0 NPrtUSL=   12    1 IThBeg=    0 IThEnd=   11 CPU=   -1 GPU=   -1 NThAct=    6.
 PrsmSu-ThDecC:  IPartSL=    4    0 NPrtUSL=   12    1 IThBeg=    0 IThEnd=   11 CPU=   -1 GPU=   -1 NThAct=    5.
 IPart=  2 NShTot=           3 NBatch=           3 AvBLen=         1.0
 PrsmSu-ThDecC:  IPartSL=    2    0 NPrtUSL=   12    1 IThBeg=    0 IThEnd=   11 CPU=   -1 GPU=   -1 NThAct=    4.
 IPart= 11 NShTot=           0 NBatch=           0 AvBLen=         0.0
 PrsmSu-ThDecC:  IPartSL=   11    0 NPrtUSL=   12    1 IThBeg=    0 IThEnd=   11 CPU=   -1 GPU=   -1 NThAct=    3.
 IPart=  5 NShTot=           0 NBatch=           0 AvBLen=         0.0
 PrsmSu-ThDecC:  IPartSL=    5    0 NPrtUSL=   12    1 IThBeg=    0 IThEnd=   11 CPU=   -1 GPU=   -1 NThAct=    2.
 IPart=  1 NShTot=           3 NBatch=           3 AvBLen=         1.0
 PrsmSu-ThDecC:  IPartSL=    1    0 NPrtUSL=   12    1 IThBeg=    0 IThEnd=   11 CPU=   -1 GPU=   -1 NThAct=    1.
 PrSmSu:  NxtVal=             13.
 *** Overlap *** 
                1             2             3             4 
      1  0.100000D+01
      2  0.658292D+00  0.100000D+01
      3  0.300303D+00  0.334248D+00  0.100000D+01
      4  0.536094D+00  0.746564D+00  0.634148D+00  0.100000D+01
 *** Kinetic Energy *** 
                1             2             3             4 
      1  0.139568D+01
      2  0.259735D+00  0.241917D+00
      3  0.105657D+00  0.115030D+00  0.292565D+01
      4  0.236735D+00  0.199566D+00  0.467227D+00  0.446946D+00
 Entering OneElI...
 OneElI was handed  4294967235 working-precision words.
 Calculate potential energy integrals
    NBasis =   4  MinDer = 0  MaxDer = 0
 Requested accuracy = 0.1000D-12
 ShPair: Thresh= 1.00D-13 NBox=     0 BxSize= 0.00D+00 RnKept= 1.46D+00
         NSMCal=                   10 NSMKep=                  10
 PrmmSu-InSpLW:  IPartL=    0 NPrtUS=   12 NPrtUL=    1 DoSpLW=F IThBeg=    0 IThEnd=   11 NThAct=   12.
 PrSmSu:  IncTry=   512 NBBP=             20 NTPThr=   100 NPartT=   12 Incr=           1 LDynOK=F GPUOK=F.
 PrsmSu:  NPrtUS=  12 ThrOK=T IAlg=1 LenDen=           0 ISkipM=0 DoSpLW=F IThBeg=    0 IThEnd=   11.
 Prism:   IPart=     0 DynPar=F LinDyn=F Incr=           1.
 PRISM was handed   357912968 working-precision words and    10 shell-pairs
 PRISM was handed   357912968 working-precision words and    10 shell-pairs
 PRISM was handed   357912968 working-precision words and    10 shell-pairs
 PRISM was handed   357912968 working-precision words and    10 shell-pairs
 PRISM was handed   357912968 working-precision words and    10 shell-pairs
 PRISM was handed   357912968 working-precision words and    10 shell-pairs
 PRISM was handed   357912968 working-precision words and    10 shell-pairs
 PRISM was handed   357912968 working-precision words and    10 shell-pairs
 PRISM was handed   357912968 working-precision words and    10 shell-pairs
 PRISM was handed   357912968 working-precision words and    10 shell-pairs
 PRISM was handed   357912968 working-precision words and    10 shell-pairs
 PRISM was handed   357912968 working-precision words and    10 shell-pairs
 IPart=  9 NShTot=           0 NBatch=           0 AvBLen=         0.0
 PrsmSu-ThDecC:  IPartSL=    9    0 NPrtUSL=   12    1 IThBeg=    0 IThEnd=   11 CPU=   -1 GPU=   -1 NThAct=   12.
 IPart=  4 NShTot=           0 NBatch=           0 AvBLen=         0.0
 PrsmSu-ThDecC:  IPartSL=    4    0 NPrtUSL=   12    1 IThBeg=    0 IThEnd=   11 CPU=   -1 GPU=   -1 NThAct=   11.
 IPart=  6 NShTot=           0 NBatch=           0 AvBLen=         0.0
 PrsmSu-ThDecC:  IPartSL=    6    0 NPrtUSL=   12    1 IThBeg=    0 IThEnd=   11 CPU=   -1 GPU=   -1 NThAct=   10.
 IPart=  3 NShTot=           2 NBatch=           1 AvBLen=         2.0
 IPart=  1 NShTot=           6 NBatch=           3 AvBLen=         2.0
 PrsmSu-ThDecC:  IPartSL=    3    0 NPrtUSL=   12    1 IThBeg=    0 IThEnd=   11 CPU=   -1 GPU=   -1 NThAct=    9.
 PrsmSu-ThDecC:  IPartSL=    1    0 NPrtUSL=   12    1 IThBeg=    0 IThEnd=   11 CPU=   -1 GPU=   -1 NThAct=    8.
 IPart= 10 NShTot=           0 NBatch=           0 AvBLen=         0.0
 PrsmSu-ThDecC:  IPartSL=   10    0 NPrtUSL=   12    1 IThBeg=    0 IThEnd=   11 CPU=   -1 GPU=   -1 NThAct=    7.
 IPart=  7 NShTot=           0 NBatch=           0 AvBLen=         0.0
 PrsmSu-ThDecC:  IPartSL=    7    0 NPrtUSL=   12    1 IThBeg=    0 IThEnd=   11 CPU=   -1 GPU=   -1 NThAct=    6.
 IPart=  2 NShTot=           6 NBatch=           3 AvBLen=         2.0
 PrsmSu-ThDecC:  IPartSL=    2    0 NPrtUSL=   12    1 IThBeg=    0 IThEnd=   11 CPU=   -1 GPU=   -1 NThAct=    5.
 IPart=  0 NShTot=           6 NBatch=           3 AvBLen=         2.0
 PrsmSu-ThDecC:  IPartSL=    0    0 NPrtUSL=   12    1 IThBeg=    0 IThEnd=   11 CPU=   -1 GPU=   -1 NThAct=    4.
 IPart= 11 NShTot=           0 NBatch=           0 AvBLen=         0.0
 PrsmSu-ThDecC:  IPartSL=   11    0 NPrtUSL=   12    1 IThBeg=    0 IThEnd=   11 CPU=   -1 GPU=   -1 NThAct=    3.
 IPart=  5 NShTot=           0 NBatch=           0 AvBLen=         0.0
 PrsmSu-ThDecC:  IPartSL=    5    0 NPrtUSL=   12    1 IThBeg=    0 IThEnd=   11 CPU=   -1 GPU=   -1 NThAct=    2.
 IPart=  8 NShTot=           0 NBatch=           0 AvBLen=         0.0
 PrsmSu-ThDecC:  IPartSL=    8    0 NPrtUSL=   12    1 IThBeg=    0 IThEnd=   11 CPU=   -1 GPU=   -1 NThAct=    1.
 PrSmSu:  NxtVal=             13.
 ***** Potential Energy ***** 
                1             2             3             4 
      1  0.300634D+01
      2  0.159287D+01  0.168097D+01
      3  0.118941D+01  0.124482D+01  0.549025D+01
      4  0.149451D+01  0.159886D+01  0.244432D+01  0.235135D+01
 ****** Core Hamiltonian ****** 
                1             2             3             4 
      1 -0.161066D+01
      2 -0.133314D+01 -0.143906D+01
      3 -0.108376D+01 -0.112978D+01 -0.256459D+01
      4 -0.125777D+01 -0.139930D+01 -0.197710D+01 -0.190441D+01
 SSO for IR=          1
                 1             2             3             4 
      1   0.100000D+01  0.658292D+00  0.300303D+00  0.536094D+00
      2   0.658292D+00  0.100000D+01  0.334248D+00  0.746564D+00
      3   0.300303D+00  0.334248D+00  0.100000D+01  0.634148D+00
      4   0.536094D+00  0.746564D+00  0.634148D+00  0.100000D+01
 SVDSVc IOpt=   1 NormSV=T IR=1
 SVDSVc V= 2.63D+00 8.04D-01 4.03D-01 1.61D-01
 V for IR=          1
                 1             2             3             4 
      1   0.476213D+00 -0.491472D+00  0.713886D+00  0.148468D+00
      2   0.533988D+00 -0.353043D+00 -0.473425D+00 -0.605051D+00
      3   0.415192D+00  0.775786D+00  0.328518D+00 -0.343289D+00
      4   0.561866D+00  0.178807D+00 -0.397883D+00  0.702868D+00
 Vt*S*V: 
                1             2             3             4 
      1  0.100000D+01
      2  0.000000D+00  0.100000D+01
      3  0.000000D+00  0.000000D+00  0.100000D+01
      4  0.000000D+00  0.000000D+00  0.000000D+00  0.100000D+01
 TstOVc:  Largest diagonal error= 5.55D-16 IB=1 I=    3.
 TstOVc:  Largest same sym error= 8.26D-16 IB=1 I=    3 J=    2.
 Orthogonalized basis functions: 
                 1             2             3             4 
      1   0.293506D+00 -0.548179D+00  0.112476D+01  0.370189D+00
      2   0.329115D+00 -0.393778D+00 -0.745901D+00 -0.150862D+01
      3   0.255897D+00  0.865299D+00  0.517594D+00 -0.855951D+00
      4   0.346297D+00  0.199439D+00 -0.626881D+00  0.175252D+01
 NBasis=     4 RedAO= T EigKep=  1.61D-01  NBF=     4
 NBsUse=     4 1.00D-06 EigRej= -1.00D+00 NBFU=     4
 Leave Link  302 at Mon Mar  8 10:20:35 2021, MaxMem=  4294967296 cpu:               0.7 elap:               0.1
 (Enter /opt/gaussian/gdv-20180628-i14+/gdv/l303.exe)
 GetPCM: File not found, return IValue=0.
 DipDrv:  MaxL=1.
 MemDpI: Int=      800000 Cav=           0 CFW=           0 Tot=      800000
 DipPsm:  J= 1 NJ= 4 MaxL=1 MMat= 4 MaxMat= 4.
 DipInt: DoE/N= T F RetVal/Mat= F T Init=T NMatP=  4 IDeriv=0 Min/MaxMlt=  0  1
 Entering OneElI...
 OneElI was handed  4294967255 working-precision words.
 Multipole integrals L=0 to 1 MinM= 0 MaxM= 3.
 Requested accuracy = 0.1000D-12
 ShPair: Thresh= 1.00D-13 NBox=     0 BxSize= 0.00D+00 RnKept= 1.46D+00
         NSMCal=                   10 NSMKep=                  10
 PrmmSu-InSpLW:  IPartL=    0 NPrtUS=    1 NPrtUL=    1 DoSpLW=F IThBeg=    0 IThEnd=    0 NThAct=    1.
 PrSmSu:  IncTry=   512 NBBP=             10 NTPThr=   100 NPartT=    1 Incr=           1 LDynOK=F GPUOK=F.
 PrsmSu:  NPrtUS=   1 ThrOK=F IAlg=2 LenDen=           0 ISkipM=0 DoSpLW=F IThBeg=    0 IThEnd=    0.
 Prism:   IPart=     0 DynPar=F LinDyn=F Incr=           1.
 PRISM was handed  4294965765 working-precision words and    10 shell-pairs
 IPart=  0 NShTot=          10 NBatch=           3 AvBLen=         3.3
 PrsmSu-ThDecC:  IPartSL=    0    0 NPrtUSL=    1    1 IThBeg=    0 IThEnd=    0 CPU=   -1 GPU=   -1 NThAct=    1.
 PrSmSu:  NxtVal=              2.
 Multipole matrices IBuc=  518 IX=    1 IJ=           1:
                1             2             3             4 
      1  0.000000D+00
      2  0.000000D+00  0.000000D+00
      3  0.000000D+00  0.000000D+00  0.000000D+00
      4  0.000000D+00  0.000000D+00  0.000000D+00  0.000000D+00
 Multipole matrices IBuc=  518 IX=    2 IJ=           1:
                1             2             3             4 
      1  0.000000D+00
      2  0.000000D+00  0.000000D+00
      3  0.000000D+00  0.000000D+00  0.000000D+00
      4  0.000000D+00  0.000000D+00  0.000000D+00  0.000000D+00
 Multipole matrices IBuc=  518 IX=    3 IJ=           1:
                1             2             3             4 
      1 -0.729434D+00
      2 -0.480181D+00 -0.729434D+00
      3  0.664905D-01  0.192415D+00  0.729434D+00
      4 -0.162918D+00  0.162083D+00  0.462569D+00  0.729434D+00
 ReDoC1: IPurDI=1 IPurFI=1 IPurDO=1 IPurFO=0.
 Fermi contact integrals: 
                 1             2 
      1   0.994558D+00  0.107167D+00
      2   0.181381D+00  0.128683D+00
      3   0.473221D-01  0.180037D+01
      4   0.152448D+00  0.287431D+00
 Leave Link  303 at Mon Mar  8 10:20:35 2021, MaxMem=  4294967296 cpu:               0.3 elap:               0.1
 (Enter /opt/gaussian/gdv-20180628-i14+/gdv/l320.exe)
 GetPMM: IRwPM=  824 LRwPM=    0 LPMAll=    2
 Enter DskPsm, NBasis=   4 NBas6D=   4 NShell=   4 IDoSP=4.
 Out2e will use a cutoff of  1.00D-10
 FoFCou: FMM=F IPFlag=           0 FMFlag=           0 FMFlg1=           0
         NFxFlg=           0 DoJE=F BraDBF=F KetDBF=F FulRan=T
         wScrn=  0.000000 ICntrl=       600 IOpCl=  9 I1Cent=           0 NGrid=           0
         NMat0=    0 NMatS0=      0 NMatT0=    0 NMatD0=    0 NMtDS0=    0 NMtDT0=    0
 Symmetry not used in FoFCou.
 FoFCou:  KetSym=F NOpSet=  1 NOpAb=1 NOp=  1.
 FoFCou:  CnvScl= 1.00D+00 Thresh= 1.00D-13 IAcrcy=      10.
 IniFok:  ToCart=T IDoP0=0 DoConv=F DoRafP=T DoAdj=T
 ShPair: Thresh= 1.00D-13 NBox=     0 BxSize= 0.00D+00 RnKept= 1.46D+00
         NSMCal=                   10 NSMKep=                  10
 PrismS was handed  4294703909 working-precision words and    10 shell-pairs
 FoFCou: LinMIO=F DoNuc=F BraDBF=F KetDBF=F HaveP=F PDBF=F HaveZ=F HaveW=F
         NIJTC =       1 NIJTAt=       0 NIJTCD=       0 NIJTT =       1
         IJTBeg=       1 IJTEnd=       1 KLTBeg=       1 KLTEnd=       1
         IPTBeg=       1 IPTEnd=       1 IPTBCv=       1 IPTECv=       1
         IZTBeg=       1 IZTEnd=       1 IZTBCv=       1 IZTECv=       1
         IWTBeg=       2 IWTEnd=       1 IWTBCv=       2 IWTECv=       1
         INTBeg=       1 INTEnd=       0 IFTBCv=       1 IFTECv=       1
 NCel replicated for PrismC:     1
 CoulSu-InSpLW:  IPartL=    0 NPrtUS=   12 NPrtUL=    1 DoSpLW=F IThBeg=    0 IThEnd=   11 NThAct=   12.
 CoulSu:  IncTry=  1024 NBBP=             55 NTPThr=   100 NPartT=   12 Incr=           1 LDynOK=F GPUOK=F.
 CoulSu:  NPrtUS=  12 ThrOK=T IAlg=2 LenDen=           0 LWGrdD=           0 DoCopy=F ISkipM=0
          DoSpLW=F IThBeg=    0 IThEnd=   11.
 CoulSu:  IPart=    0 IPartR=    0 CPU=   -1 GPU=   -1.
 Enter PrismC:  IPart=  0 JobTyp=20 DoJE=F Cont=F.
 CoulSu:  IPart=    4 IPartR=    4 CPU=   -1 GPU=   -1.
 CoulSu:  IPart=   10 IPartR=   10 CPU=   -1 GPU=   -1.
 CoulSu:  IPart=    8 IPartR=    8 CPU=   -1 GPU=   -1.
 PrismC:  IPart=     0 DynPar=F LinDyn=F Incr=           1 UseFst=F UseS4=T ISplat=1.
 PrismC was handed   357891175 working-precision words and    10 shell-pairs
 Enter PrismC:  IPart=  4 JobTyp=20 DoJE=F Cont=F.
 CoulSu:  IPart=    3 IPartR=    3 CPU=   -1 GPU=   -1.
 PrismC:  IPart=     4 DynPar=F LinDyn=F Incr=           1 UseFst=F UseS4=T ISplat=1.
 CoulSu:  IPart=   11 IPartR=   11 CPU=   -1 GPU=   -1.
 CoulSu:  IPart=    6 IPartR=    6 CPU=   -1 GPU=   -1.
 CoulSu:  IPart=    2 IPartR=    2 CPU=   -1 GPU=   -1.
 CoulSu:  IPart=    5 IPartR=    5 CPU=   -1 GPU=   -1.
 PrismC was handed   357891175 working-precision words and    10 shell-pairs
 Enter PrismC:  IPart=  6 JobTyp=20 DoJE=F Cont=F.
 CoulSu:  IPart=    7 IPartR=    7 CPU=   -1 GPU=   -1.
 Enter PrismC:  IPart=  2 JobTyp=20 DoJE=F Cont=F.
 Enter PrismC:  IPart=  8 JobTyp=20 DoJE=F Cont=F.
 Enter PrismC:  IPart=  5 JobTyp=20 DoJE=F Cont=F.
 Enter PrismC:  IPart= 11 JobTyp=20 DoJE=F Cont=F.
 Enter PrismC:  IPart=  3 JobTyp=20 DoJE=F Cont=F.
 Enter PrismC:  IPart= 10 JobTyp=20 DoJE=F Cont=F.
 CoulSu:  IPart=    9 IPartR=    9 CPU=   -1 GPU=   -1.
 PrismC:  IPart=     6 DynPar=F LinDyn=F Incr=           1 UseFst=F UseS4=T ISplat=1.
 PrismC:  IPart=     2 DynPar=F LinDyn=F Incr=           1 UseFst=F UseS4=T ISplat=1.
 PrismC:  IPart=     8 DynPar=F LinDyn=F Incr=           1 UseFst=F UseS4=T ISplat=1.
 PrismC was handed   357891175 working-precision words and    10 shell-pairs
 PrismC was handed   357891175 working-precision words and    10 shell-pairs
 PrismC was handed   357891175 working-precision words and    10 shell-pairs
 Enter PrismC:  IPart=  7 JobTyp=20 DoJE=F Cont=F.
 PrismC:  IPart=     3 DynPar=F LinDyn=F Incr=           1 UseFst=F UseS4=T ISplat=1.
 CoulSu:  IPart=    1 IPartR=    1 CPU=   -1 GPU=   -1.
 Enter PrismC:  IPart=  9 JobTyp=20 DoJE=F Cont=F.
 PrismC:  IPart=    10 DynPar=F LinDyn=F Incr=           1 UseFst=F UseS4=T ISplat=1.
 Enter PrismC:  IPart=  1 JobTyp=20 DoJE=F Cont=F.
 PrismC:  IPart=     5 DynPar=F LinDyn=F Incr=           1 UseFst=F UseS4=T ISplat=1.
 PrismC:  IPart=     7 DynPar=F LinDyn=F Incr=           1 UseFst=F UseS4=T ISplat=1.
 PrismC was handed   357891175 working-precision words and    10 shell-pairs
 PrismC:  IPart=    11 DynPar=F LinDyn=F Incr=           1 UseFst=F UseS4=T ISplat=1.
 PrismC was handed   357891175 working-precision words and    10 shell-pairs
 PrismC was handed   357891175 working-precision words and    10 shell-pairs
 PrismC:  IPart=     9 DynPar=F LinDyn=F Incr=           1 UseFst=F UseS4=T ISplat=1.
 PrismC was handed   357891175 working-precision words and    10 shell-pairs
 PrismC:  IPart=     1 DynPar=F LinDyn=F Incr=           1 UseFst=F UseS4=T ISplat=1.
 PrismC was handed   357891175 working-precision words and    10 shell-pairs
 PrismC was handed   357891175 working-precision words and    10 shell-pairs
 PrismC was handed   357891175 working-precision words and    10 shell-pairs
 IPart= 11 NShTot=           2 NShNF=           2 NShFF=           0 MinMC=     218
           NShCPU=           2 NBCPU=           2 AvBCPU=         1.0
           NShGPU=           0 NBGPU=           0 AvBGPU=         0.0
 CoulSu-ThDecC:  IPartSL=   11    0 NPrtUSL=   12    1 IThBeg=    0 IThEnd=   11 CPU=   -1 GPU=   -1 NThAct=   12.
 IPart=  7 NShTot=           5 NShNF=           5 NShFF=           0 MinMC=     218
           NShCPU=           5 NBCPU=           5 AvBCPU=         1.0
           NShGPU=           0 NBGPU=           0 AvBGPU=         0.0
 CoulSu-ThDecC:  IPartSL=    7    0 NPrtUSL=   12    1 IThBeg=    0 IThEnd=   11 CPU=   -1 GPU=   -1 NThAct=   11.
 IPart=  3 NShTot=           6 NShNF=           6 NShFF=           0 MinMC=     218
           NShCPU=           6 NBCPU=           6 AvBCPU=         1.0
           NShGPU=           0 NBGPU=           0 AvBGPU=         0.0
 CoulSu-ThDecC:  IPartSL=    3    0 NPrtUSL=   12    1 IThBeg=    0 IThEnd=   11 CPU=   -1 GPU=   -1 NThAct=   10.
 IPart=  0 NShTot=           7 NShNF=           7 NShFF=           0 MinMC=     218
           NShCPU=           7 NBCPU=           6 AvBCPU=         1.2
           NShGPU=           0 NBGPU=           0 AvBGPU=         0.0
 CoulSu-ThDecC:  IPartSL=    0    0 NPrtUSL=   12    1 IThBeg=    0 IThEnd=   11 CPU=   -1 GPU=   -1 NThAct=    9.
 IPart=  4 NShTot=           6 NShNF=           6 NShFF=           0 MinMC=     218
           NShCPU=           6 NBCPU=           6 AvBCPU=         1.0
           NShGPU=           0 NBGPU=           0 AvBGPU=         0.0
 CoulSu-ThDecC:  IPartSL=    4    0 NPrtUSL=   12    1 IThBeg=    0 IThEnd=   11 CPU=   -1 GPU=   -1 NThAct=    8.
 IPart=  9 NShTot=           3 NShNF=           3 NShFF=           0 MinMC=     218
           NShCPU=           3 NBCPU=           3 AvBCPU=         1.0
           NShGPU=           0 NBGPU=           0 AvBGPU=         0.0
 CoulSu-ThDecC:  IPartSL=    9    0 NPrtUSL=   12    1 IThBeg=    0 IThEnd=   11 CPU=   -1 GPU=   -1 NThAct=    7.
 IPart=  5 NShTot=           4 NShNF=           4 NShFF=           0 MinMC=     218
           NShCPU=           4 NBCPU=           4 AvBCPU=         1.0
           NShGPU=           0 NBGPU=           0 AvBGPU=         0.0
 CoulSu-ThDecC:  IPartSL=    5    0 NPrtUSL=   12    1 IThBeg=    0 IThEnd=   11 CPU=   -1 GPU=   -1 NThAct=    6.
 IPart=  1 NShTot=           4 NShNF=           4 NShFF=           0 MinMC=     218
           NShCPU=           4 NBCPU=           4 AvBCPU=         1.0
           NShGPU=           0 NBGPU=           0 AvBGPU=         0.0
 CoulSu-ThDecC:  IPartSL=    1    0 NPrtUSL=   12    1 IThBeg=    0 IThEnd=   11 CPU=   -1 GPU=   -1 NThAct=    5.
 IPart=  8 NShTot=           6 NShNF=           6 NShFF=           0 MinMC=     218
           NShCPU=           6 NBCPU=           6 AvBCPU=         1.0
           NShGPU=           0 NBGPU=           0 AvBGPU=         0.0
 CoulSu-ThDecC:  IPartSL=    8    0 NPrtUSL=   12    1 IThBeg=    0 IThEnd=   11 CPU=   -1 GPU=   -1 NThAct=    4.
 IPart=  2 NShTot=           4 NShNF=           4 NShFF=           0 MinMC=     218
           NShCPU=           4 NBCPU=           4 AvBCPU=         1.0
           NShGPU=           0 NBGPU=           0 AvBGPU=         0.0
 CoulSu-ThDecC:  IPartSL=    2    0 NPrtUSL=   12    1 IThBeg=    0 IThEnd=   11 CPU=   -1 GPU=   -1 NThAct=    3.
 IPart=  6 NShTot=           5 NShNF=           5 NShFF=           0 MinMC=     218
           NShCPU=           5 NBCPU=           5 AvBCPU=         1.0
           NShGPU=           0 NBGPU=           0 AvBGPU=         0.0
 CoulSu-ThDecC:  IPartSL=    6    0 NPrtUSL=   12    1 IThBeg=    0 IThEnd=   11 CPU=   -1 GPU=   -1 NThAct=    2.
 IPart= 10 NShTot=           3 NShNF=           3 NShFF=           0 MinMC=     218
           NShCPU=           3 NBCPU=           3 AvBCPU=         1.0
           NShGPU=           0 NBGPU=           0 AvBGPU=         0.0
 CoulSu-ThDecC:  IPartSL=   10    0 NPrtUSL=   12    1 IThBeg=    0 IThEnd=   11 CPU=   -1 GPU=   -1 NThAct=    1.
 CoulSu:  NxtVal=             13 LenVP=      357891176 MinMC=     218.
 IniFok:  ToCart=T IDoP0=0 DoConv=T DoRafP=F DoAdj=T
           55 integrals produced for a total of           55.
  END OF INTEGRAL PRINTING.

 warning: entry into irel
 Leave Link  320 at Mon Mar  8 10:20:36 2021, MaxMem=  4294967296 cpu:               0.6 elap:               0.1
 (Enter /opt/gaussian/gdv-20180628-i14+/gdv/l316.exe)



 *** Dumping Two-Electron integrals ***



 ISMode= 0 Mode= 1 IBase=         1 IBasD=         1    131073
 DBase=         0 DBasD=         0         0 IReset=         2    131070
 IntCnt=        55 ITotal=        55 NWIIB=    131072 ISym2E=0
 I=  4 J=  3 K=  2 L=  1 Int=  0.252631373093D+00
 I=  4 J=  2 K=  3 L=  1 Int=  0.154920843070D+00
 I=  4 J=  1 K=  3 L=  2 Int=  0.135775034026D+00
 I=  3 J=  3 K=  3 L=  2 Int=  0.396297354393D+00
 I=  3 J=  2 K=  3 L=  2 Int=  0.112384361848D+00
 I=  3 J=  3 K=  1 L=  1 Int=  0.662097900594D+00
 I=  4 J=  3 K=  4 L=  2 Int=  0.311644482906D+00
 I=  3 J=  2 K=  3 L=  1 Int=  0.103558822355D+00
 I=  3 J=  3 K=  2 L=  2 Int=  0.505204017370D+00
 I=  3 J=  2 K=  2 L=  2 Int=  0.168805669844D+00
 I=  3 J=  2 K=  1 L=  1 Int=  0.230028026791D+00
 I=  3 J=  3 K=  3 L=  3 Int=  0.154393567538D+01
 I=  4 J=  4 K=  1 L=  1 Int=  0.568088042572D+00
 I=  4 J=  4 K=  2 L=  2 Int=  0.448802871648D+00
 I=  3 J=  3 K=  2 L=  1 Int=  0.411795455399D+00
 I=  4 J=  3 K=  3 L=  2 Int=  0.217674307122D+00
 I=  4 J=  4 K=  3 L=  3 Int=  0.803951859203D+00
 I=  4 J=  4 K=  2 L=  1 Int=  0.352666707051D+00
 I=  3 J=  2 K=  2 L=  1 Int=  0.140199116191D+00
 I=  4 J=  4 K=  3 L=  2 Int=  0.246732480109D+00
 I=  4 J=  4 K=  4 L=  4 Int=  0.615937941442D+00
 I=  4 J=  1 K=  1 L=  1 Int=  0.475656748600D+00
 I=  4 J=  1 K=  3 L=  1 Int=  0.141141090772D+00
 I=  4 J=  2 K=  1 L=  1 Int=  0.456704603650D+00
 I=  4 J=  1 K=  3 L=  3 Int=  0.413938026845D+00
 I=  4 J=  4 K=  3 L=  1 Int=  0.221642108756D+00
 I=  4 J=  3 K=  4 L=  1 Int=  0.247819030015D+00
 I=  4 J=  1 K=  4 L=  1 Int=  0.234295328898D+00
 I=  4 J=  2 K=  2 L=  1 Int=  0.279647651117D+00
 I=  4 J=  4 K=  4 L=  1 Int=  0.326132387726D+00
 I=  4 J=  3 K=  2 L=  2 Int=  0.311844566430D+00
 I=  3 J=  1 K=  3 L=  1 Int=  0.103590062195D+00
 I=  1 J=  1 K=  1 L=  1 Int=  0.107656613246D+01
 I=  3 J=  1 K=  2 L=  1 Int=  0.148520002267D+00
 I=  2 J=  1 K=  1 L=  1 Int=  0.578470297092D+00
 I=  4 J=  1 K=  2 L=  1 Int=  0.270318067271D+00
 I=  2 J=  2 K=  1 L=  1 Int=  0.587395831122D+00
 I=  2 J=  1 K=  2 L=  1 Int=  0.329423122098D+00
 I=  4 J=  2 K=  4 L=  1 Int=  0.246950034410D+00
 I=  2 J=  2 K=  2 L=  1 Int=  0.361303768659D+00
 I=  4 J=  2 K=  4 L=  2 Int=  0.301366692880D+00
 I=  2 J=  2 K=  2 L=  2 Int=  0.453150328482D+00
 I=  3 J=  1 K=  1 L=  1 Int=  0.256677198117D+00
 I=  3 J=  3 K=  3 L=  1 Int=  0.353349052410D+00
 I=  4 J=  3 K=  1 L=  1 Int=  0.408203419004D+00
 I=  3 J=  1 K=  2 L=  2 Int=  0.164977058745D+00
 I=  4 J=  3 K=  3 L=  1 Int=  0.194813098004D+00
 I=  4 J=  2 K=  3 L=  3 Int=  0.517485671378D+00
 I=  4 J=  3 K=  4 L=  3 Int=  0.427025461041D+00
 I=  4 J=  3 K=  3 L=  3 Int=  0.785447193330D+00
 I=  4 J=  2 K=  3 L=  2 Int=  0.164992980727D+00
 I=  4 J=  1 K=  2 L=  2 Int=  0.295455061735D+00
 I=  4 J=  4 K=  4 L=  2 Int=  0.419481093258D+00
 I=  4 J=  2 K=  2 L=  2 Int=  0.346955193372D+00
 I=  4 J=  4 K=  4 L=  3 Int=  0.476189573617D+00
 Leave Link  316 at Mon Mar  8 10:20:36 2021, MaxMem=  4294967296 cpu:               0.3 elap:               0.1
 (Enter /opt/gaussian/gdv-20180628-i14+/gdv/l308.exe)
 Dipole velocity integrals will be written to rwf   572.
 Entering OneElI...
 OneElI was handed  4294967176 working-precision words.
 Calculate R x Del and Del integrals.
    NBasis =     4  MinDer = 0  MaxDer = 0
 Requested accuracy = 0.1000D-12
 ShPair: Thresh= 1.00D-13 NBox=     0 BxSize= 0.00D+00 RnKept= 1.46D+00
         NSMCal=                   10 NSMKep=                  10
 PrmmSu-InSpLW:  IPartL=    0 NPrtUS=    1 NPrtUL=    1 DoSpLW=F IThBeg=    0 IThEnd=    0 NThAct=    1.
 PrSmSu:  IncTry=   512 NBBP=             10 NTPThr=   100 NPartT=    1 Incr=           1 LDynOK=F GPUOK=F.
 PrsmSu:  NPrtUS=   1 ThrOK=F IAlg=2 LenDen=           0 ISkipM=0 DoSpLW=F IThBeg=    0 IThEnd=    0.
 Prism:   IPart=     0 DynPar=F LinDyn=F Incr=           1.
 PRISM was handed  4294965688 working-precision words and    10 shell-pairs
 IPart=  0 NShTot=          10 NBatch=           3 AvBLen=         3.3
 PrsmSu-ThDecC:  IPartSL=    0    0 NPrtUSL=    1    1 IThBeg=    0 IThEnd=    0 CPU=   -1 GPU=   -1 NThAct=    1.
 PrSmSu:  NxtVal=              2.
 Dipole Velocity for IMat=    1:
                1             2             3             4 
      1  0.000000D+00
      2  0.000000D+00  0.000000D+00
      3  0.000000D+00  0.000000D+00  0.000000D+00
      4  0.000000D+00  0.000000D+00  0.000000D+00  0.000000D+00
 Dipole Velocity for IMat=    2:
                1             2             3             4 
      1  0.000000D+00
      2  0.000000D+00  0.000000D+00
      3  0.000000D+00  0.000000D+00  0.000000D+00
      4  0.000000D+00  0.000000D+00  0.000000D+00  0.000000D+00
 Dipole Velocity for IMat=    3:
                1             2             3             4 
      1  0.000000D+00
      2  0.000000D+00  0.000000D+00
      3 -0.423402D+00 -0.140708D+00  0.000000D+00
      4 -0.330123D+00 -0.227935D+00  0.000000D+00  0.000000D+00
 R x Del for IMat=    1:
                1             2             3             4 
      1  0.000000D+00
      2  0.000000D+00  0.000000D+00
      3  0.000000D+00  0.000000D+00  0.000000D+00
      4  0.000000D+00  0.000000D+00  0.000000D+00  0.000000D+00
 R x Del for IMat=    2:
                1             2             3             4 
      1  0.000000D+00
      2  0.000000D+00  0.000000D+00
      3  0.000000D+00  0.000000D+00  0.000000D+00
      4  0.000000D+00  0.000000D+00  0.000000D+00  0.000000D+00
 R x Del for IMat=    3:
                1             2             3             4 
      1  0.000000D+00
      2  0.000000D+00  0.000000D+00
      3  0.000000D+00  0.000000D+00  0.000000D+00
      4  0.000000D+00  0.000000D+00  0.000000D+00  0.000000D+00
< mu | del r + r del | nu > integrals: XX
                1             2             3             4 
      1  0.000000D+00
      2 -0.415363D+00  0.000000D+00
      3  0.911536D-01  0.263787D+00  0.000000D+00
      4 -0.223349D+00  0.222203D+00 -0.411229D+00  0.000000D+00
< mu | del r + r del | nu > integrals: YY
                1             2             3             4 
      1  0.000000D+00
      2 -0.415363D+00  0.000000D+00
      3  0.911536D-01  0.263787D+00  0.000000D+00
      4 -0.223349D+00  0.222203D+00 -0.411229D+00  0.000000D+00
< mu | del r + r del | nu > integrals: ZZ
                1             2             3             4 
      1  0.000000D+00
      2 -0.415363D+00  0.000000D+00
      3 -0.698361D-01  0.101439D+00  0.000000D+00
      4 -0.156412D-01  0.123232D+00 -0.411229D+00  0.000000D+00
< mu | del r + r del | nu > integrals: XY
                1             2             3             4 
      1  0.000000D+00
      2  0.000000D+00  0.000000D+00
      3  0.000000D+00  0.000000D+00  0.000000D+00
      4  0.000000D+00  0.000000D+00  0.000000D+00  0.000000D+00
< mu | del r + r del | nu > integrals: XZ
                1             2             3             4 
      1  0.000000D+00
      2  0.000000D+00  0.000000D+00
      3  0.000000D+00  0.000000D+00  0.000000D+00
      4  0.000000D+00  0.000000D+00  0.000000D+00  0.000000D+00
< mu | del r + r del | nu > integrals: YZ
                1             2             3             4 
      1  0.000000D+00
      2  0.000000D+00  0.000000D+00
      3  0.000000D+00  0.000000D+00  0.000000D+00
      4  0.000000D+00  0.000000D+00  0.000000D+00  0.000000D+00
 Leave Link  308 at Mon Mar  8 10:20:36 2021, MaxMem=  4294967296 cpu:               0.3 elap:               0.1
 (Enter /opt/gaussian/gdv-20180628-i14+/gdv/l401.exe)
 Initial guess wavefunction:
 SetAtRh:  ITypeU=  14 NETotI=       2 ICharg=  1 NETot=       2.
 StAtR1:  I=    1 I1=    1 IA=  1 C=   1.0 OKShel=T
                                                  S
                                                  1
 StAtR1:  I=    2 I1=    2 IA=  2 C=   2.0 OKShel=T
                                                  S
                                                  2
          I=    1 IA=  1 I1=    1 NAtG=10 NE=   1.000 C=   0.667 Err=-3.33D-01
          I=    2 IA=  2 I1=    2 NAtG=11 NE=   2.000 C=   1.333 Err=-6.67D-01
 ShPair: Thresh= 1.00D-12 NBox=     0 BxSize= 0.00D+00 RnKept= 1.46D+00
         NSMCal=                   10 NSMKep=                  10
 ReadGW:  IGet=1 IStart=           1 Next=           1 LGW=           0.
 ExpMin= 1.61D-01 ExpMax= 3.84D+01 ExpMxC= 3.84D+01 IAcc=3 IRadAn=         5 AccDes= 0.00D+00
 Harris functional with IExCor=  205 and IRadAn=       5 diagonalized for initial guess.
 HarFok:  IExCor=  205 AccDes= 0.00D+00 IRadAn=         5 IDoV= 1 UseB2=F ITyADJ=14
 ICtDFT=  3500011 ScaDFX=  1.000000  1.000000  1.000000  1.000000
 Pruned (  99, 590) grid will be used in numerical quadrature.
 CkSvGd:  ISavGI=        -1 IRadAn=       5 IRASav=       0 ISavGd=        -1.
 SetAtRh:  ITypeU=  13 NETotI=       3 ICharg=  0 NETot=       3.
 StAtR1:  I=    1 I1=    1 IA=  1 C=   1.0 OKShel=T
                                                  S
                                                  1
 StAtR1:  I=    2 I1=    2 IA=  2 C=   2.0 OKShel=T
                                                  S
                                                  2
          I=    1 IA=  1 I1=    1 NAtG= 9 NE=   1.000 C=   1.000 Err=-2.15D-12
          I=    2 IA=  2 I1=    2 NAtG=10 NE=   2.000 C=   2.000 Err=-3.06D-12
 CalDSu-InSpLW:  IPartL=    0 NPrtUS=   12 NPrtUL=    1 DoSpLW=F IThBeg=    0 IThEnd=   11 NThAct=   12.
 CalDSu:  NPrtUS=  12 ThrOK=T IAlg=2 DoDPD=F LenP=          10 LenD1P=             0 GPUOK=F
          ISkipM=0 DoSpLW=F IThBeg=    0 IThEnd=   11.
 IPart=  0 IRanGd=          0 ScrnBf=T ScrnGd=T RCrit=4.00D+00 DoMicB=T.
 CutRad = 1000.00    CtRdIn =    0.00    XCrit =  15.00   ICut = 0
 IPart= 10 IRanGd=          0 ScrnBf=T ScrnGd=T RCrit=4.00D+00 DoMicB=T.
 CutRad = 1000.00    CtRdIn =    0.00    XCrit =  15.00   ICut = 0
 IPart=  9 IRanGd=          0 ScrnBf=T ScrnGd=T RCrit=4.00D+00 DoMicB=T.
 Pruned (  99, 590) grid will be used in numerical quadrature.
 Pruned (  99, 590) grid will be used in numerical quadrature.
 CutRad = 1000.00    CtRdIn =    0.00    XCrit =  15.00   ICut = 0
 Pruned (  99, 590) grid will be used in numerical quadrature.
 IPart= 10 Atom number   1 atomic number  1 has       21352 grid points.
 IPart=  0 Atom number   1 atomic number  1 has       21352 grid points.
 IPart=  9 Atom number   1 atomic number  1 has       21352 grid points.
 At   1 B   2: 100.0% Sh 100.0 % Bf    1 runs, min    4 max    4 av    4.0
 IPart=  0 Atom   1 batch    2 overlaps    2 atoms,     4 shells and     2 DB shells.   NGrid=      1552
 IPart=  5 IRanGd=          0 ScrnBf=T ScrnGd=T RCrit=4.00D+00 DoMicB=T.
 CutRad = 1000.00    CtRdIn =    0.00    XCrit =  15.00   ICut = 0
 At   1 B   3: 100.0% Sh 100.0 % Bf    1 runs, min    4 max    4 av    4.0
 IPart=  9 Atom   1 batch    3 overlaps    2 atoms,     4 shells and     2 DB shells.   NGrid=      2416
 Pruned (  99, 590) grid will be used in numerical quadrature.
 At   1 B   1: 100.0% Sh 100.0 % Bf    1 runs, min    4 max    4 av    4.0
 IPart= 10 Atom   1 batch    1 overlaps    2 atoms,     4 shells and     2 DB shells.   NGrid=      2838
 IPart=  5 Atom number   1 atomic number  1 has       21352 grid points.
 At   1 B   4: 100.0% Sh 100.0 % Bf    1 runs, min    4 max    4 av    4.0
 IPart=  5 Atom   1 batch    4 overlaps    2 atoms,     4 shells and     2 DB shells.   NGrid=      1180
 Symmetry reduced   194 angular points to   194 for atom    1.
 Symmetry reduced   302 angular points to   302 for atom    1.
 Symmetry reduced    86 angular points to    86 for atom    1.
 Symmetry reduced   590 angular points to   590 for atom    1.
 IPart=  8 IRanGd=          0 ScrnBf=T ScrnGd=T RCrit=4.00D+00 DoMicB=T.
 CutRad = 1000.00    CtRdIn =    0.00    XCrit =  15.00   ICut = 0
 IPart=  2 IRanGd=          0 ScrnBf=T ScrnGd=T RCrit=4.00D+00 DoMicB=T.
 Pruned (  99, 590) grid will be used in numerical quadrature.
 CutRad = 1000.00    CtRdIn =    0.00    XCrit =  15.00   ICut = 0
 IPart= 11 IRanGd=          0 ScrnBf=T ScrnGd=T RCrit=4.00D+00 DoMicB=T.
 IPart=  1 IRanGd=          0 ScrnBf=T ScrnGd=T RCrit=4.00D+00 DoMicB=T.
 Pruned (  99, 590) grid will be used in numerical quadrature.
 CutRad = 1000.00    CtRdIn =    0.00    XCrit =  15.00   ICut = 0
 IPart=  4 IRanGd=          0 ScrnBf=T ScrnGd=T RCrit=4.00D+00 DoMicB=T.
 IPart=  2 Atom number   1 atomic number  1 has       21352 grid points.
 Pruned (  99, 590) grid will be used in numerical quadrature.
 At   1 B   6: 100.0% Sh 100.0 % Bf    1 runs, min    4 max    4 av    4.0
 IPart=  2 Atom   1 batch    6 overlaps    2 atoms,     4 shells and     2 DB shells.   NGrid=      1180
 IPart=  1 Atom number   1 atomic number  1 has       21352 grid points.
 CutRad = 1000.00    CtRdIn =    0.00    XCrit =  15.00   ICut = 0
 Symmetry reduced   590 angular points to   590 for atom    1.
 IPart=  7 IRanGd=          0 ScrnBf=T ScrnGd=T RCrit=4.00D+00 DoMicB=T.
 CutRad = 1000.00    CtRdIn =    0.00    XCrit =  15.00   ICut = 0
 IPart=  6 IRanGd=          0 ScrnBf=T ScrnGd=T RCrit=4.00D+00 DoMicB=T.
 CutRad = 1000.00    CtRdIn =    0.00    XCrit =  15.00   ICut = 0
 CutRad = 1000.00    CtRdIn =    0.00    XCrit =  15.00   ICut = 0
 Pruned (  99, 590) grid will be used in numerical quadrature.
 Pruned (  99, 590) grid will be used in numerical quadrature.
 IPart=  8 Atom number   1 atomic number  1 has       21352 grid points.
 IPart=  6 Atom number   1 atomic number  1 has       21352 grid points.
 IPart= 11 Atom number   1 atomic number  1 has       21352 grid points.
 At   1 B  10: 100.0% Sh 100.0 % Bf    1 runs, min    4 max    4 av    4.0
 IPart=  6 Atom   1 batch   10 overlaps    2 atoms,     4 shells and     2 DB shells.   NGrid=      1180
 Pruned (  99, 590) grid will be used in numerical quadrature.
 At   1 B   5: 100.0% Sh 100.0 % Bf    1 runs, min    4 max    4 av    4.0
 IPart=  8 Atom   1 batch    5 overlaps    2 atoms,     4 shells and     2 DB shells.   NGrid=      1180
 Symmetry reduced   590 angular points to   590 for atom    1.
 IPart=  7 Atom number   1 atomic number  1 has       21352 grid points.
 Pruned (  99, 590) grid will be used in numerical quadrature.
 At   1 B  11: 100.0% Sh 100.0 % Bf    1 runs, min    4 max    4 av    4.0
 IPart=  7 Atom   1 batch   11 overlaps    2 atoms,     4 shells and     2 DB shells.   NGrid=      1180
 Symmetry reduced   590 angular points to   590 for atom    1.
 At   1 B   9: 100.0% Sh 100.0 % Bf    1 runs, min    4 max    4 av    4.0
 IPart= 11 Atom   1 batch    9 overlaps    2 atoms,     4 shells and     2 DB shells.   NGrid=      1180
 Symmetry reduced   590 angular points to   590 for atom    1.
 IPart=  4 Atom number   1 atomic number  1 has       21352 grid points.
 At   1 B   8: 100.0% Sh 100.0 % Bf    1 runs, min    4 max    4 av    4.0
 IPart=  4 Atom   1 batch    8 overlaps    2 atoms,     4 shells and     2 DB shells.   NGrid=      1180
 Symmetry reduced   590 angular points to   590 for atom    1.
 At   1 B   7: 100.0% Sh 100.0 % Bf    1 runs, min    4 max    4 av    4.0
 IPart=  1 Atom   1 batch    7 overlaps    2 atoms,     4 shells and     2 DB shells.   NGrid=      1180
 Symmetry reduced   590 angular points to   590 for atom    1.
 Symmetry reduced   590 angular points to   590 for atom    1.
 IPart=  3 IRanGd=          0 ScrnBf=T ScrnGd=T RCrit=4.00D+00 DoMicB=T.
 CutRad = 1000.00    CtRdIn =    0.00    XCrit =  15.00   ICut = 0
 Pruned (  99, 590) grid will be used in numerical quadrature.
 IPart=  3 Atom number   1 atomic number  1 has       21352 grid points.
 At   1 B  12: 100.0% Sh 100.0 % Bf    1 runs, min    4 max    4 av    4.0
 IPart=  3 Atom   1 batch   12 overlaps    2 atoms,     4 shells and     2 DB shells.   NGrid=      1180
 Symmetry reduced   590 angular points to   590 for atom    1.
 At   1 B  13: 100.0% Sh 100.0 % Bf    1 runs, min    4 max    4 av    4.0
 IPart=  0 Atom   1 batch   13 overlaps    2 atoms,     4 shells and     2 DB shells.   NGrid=       604
 Symmetry reduced   302 angular points to   302 for atom    1.
 At   1 B  14: 100.0% Sh 100.0 % Bf    1 runs, min    4 max    4 av    4.0
 IPart=  5 Atom   1 batch   14 overlaps    2 atoms,     4 shells and     2 DB shells.   NGrid=       604
 At   1 B  15: 100.0% Sh 100.0 % Bf    1 runs, min    4 max    4 av    4.0
 IPart=  6 Atom   1 batch   15 overlaps    2 atoms,     4 shells and     2 DB shells.   NGrid=       604
 Symmetry reduced   302 angular points to   302 for atom    1.
 Symmetry reduced   302 angular points to   302 for atom    1.
 At   1 B  16:  50.0% Sh  50.0 % Bf    2 runs, min    1 max    1 av    1.0
 IPart=  4 Atom   1 batch   16 overlaps    2 atoms,     2 shells and     2 DB shells.   NGrid=       604
 Symmetry reduced   302 angular points to   302 for atom    1.
 At   1 B  17:  50.0% Sh  50.0 % Bf    2 runs, min    1 max    1 av    1.0
 IPart=  0 Atom   1 batch   17 overlaps    2 atoms,     2 shells and     2 DB shells.   NGrid=       604
 At   1 B  18:  50.0% Sh  50.0 % Bf    2 runs, min    1 max    1 av    1.0
 IPart=  2 Atom   1 batch   18 overlaps    2 atoms,     2 shells and     1 DB shells.   NGrid=       604
 Symmetry reduced   302 angular points to   302 for atom    1.
 There are no significant shells for this batch.
 IPart=  8 Atom   1 batch   19 overlaps    2 atoms,     0 shells and     1 DB shells.   NGrid=       302
 Symmetry reduced   302 angular points to   302 for atom    1.
 Pruned (  99, 590) grid will be used in numerical quadrature.
 IPart=  8 Atom number   2 atomic number  2 has       22560 grid points.
 At   2 B   1: 100.0% Sh 100.0 % Bf    1 runs, min    4 max    4 av    4.0
 IPart=  8 Atom   2 batch    1 overlaps    2 atoms,     4 shells and     2 DB shells.   NGrid=      2838
 Symmetry reduced    86 angular points to    86 for atom    2.
 Pruned (  99, 590) grid will be used in numerical quadrature.
 IPart= 10 Atom number   2 atomic number  2 has       22560 grid points.
 At   2 B   2: 100.0% Sh 100.0 % Bf    1 runs, min    4 max    4 av    4.0
 IPart= 10 Atom   2 batch    2 overlaps    2 atoms,     4 shells and     2 DB shells.   NGrid=      1552
 Symmetry reduced   194 angular points to   194 for atom    2.
 Pruned (  99, 590) grid will be used in numerical quadrature.
 IPart=  7 Atom number   2 atomic number  2 has       22560 grid points.
 At   2 B   3: 100.0% Sh 100.0 % Bf    1 runs, min    4 max    4 av    4.0
 IPart=  7 Atom   2 batch    3 overlaps    2 atoms,     4 shells and     2 DB shells.   NGrid=      2416
 Pruned (  99, 590) grid will be used in numerical quadrature.
 Symmetry reduced   302 angular points to   302 for atom    2.
 IPart= 11 Atom number   2 atomic number  2 has       22560 grid points.
 At   2 B   4: 100.0% Sh 100.0 % Bf    1 runs, min    4 max    4 av    4.0
 IPart= 11 Atom   2 batch    4 overlaps    2 atoms,     4 shells and     2 DB shells.   NGrid=      1180
 Pruned (  99, 590) grid will be used in numerical quadrature.
 IPart=  6 Atom number   2 atomic number  2 has       22560 grid points.
 At   2 B   5: 100.0% Sh 100.0 % Bf    1 runs, min    4 max    4 av    4.0
 IPart=  6 Atom   2 batch    5 overlaps    2 atoms,     4 shells and     2 DB shells.   NGrid=      1180
 Symmetry reduced   590 angular points to   590 for atom    2.
 Pruned (  99, 590) grid will be used in numerical quadrature.
 Symmetry reduced   590 angular points to   590 for atom    2.
 IPart=  4 Atom number   2 atomic number  2 has       22560 grid points.
 Pruned (  99, 590) grid will be used in numerical quadrature.
 At   2 B   6: 100.0% Sh 100.0 % Bf    1 runs, min    4 max    4 av    4.0
 IPart=  4 Atom   2 batch    6 overlaps    2 atoms,     4 shells and     2 DB shells.   NGrid=      1180
 IPart=  1 Atom number   2 atomic number  2 has       22560 grid points.
 At   2 B   7: 100.0% Sh 100.0 % Bf    1 runs, min    4 max    4 av    4.0
 IPart=  1 Atom   2 batch    7 overlaps    2 atoms,     4 shells and     2 DB shells.   NGrid=      1180
 Symmetry reduced   590 angular points to   590 for atom    2.
 Symmetry reduced   590 angular points to   590 for atom    2.
 Pruned (  99, 590) grid will be used in numerical quadrature.
 Pruned (  99, 590) grid will be used in numerical quadrature.
 IPart=  2 Atom number   2 atomic number  2 has       22560 grid points.
 At   2 B   8: 100.0% Sh 100.0 % Bf    1 runs, min    4 max    4 av    4.0
 IPart=  2 Atom   2 batch    8 overlaps    2 atoms,     4 shells and     2 DB shells.   NGrid=      1180
 IPart=  0 Atom number   2 atomic number  2 has       22560 grid points.
 At   2 B   9: 100.0% Sh 100.0 % Bf    1 runs, min    4 max    4 av    4.0
 Symmetry reduced   590 angular points to   590 for atom    2.
 IPart=  0 Atom   2 batch    9 overlaps    2 atoms,     4 shells and     2 DB shells.   NGrid=      1180
 Pruned (  99, 590) grid will be used in numerical quadrature.
 Symmetry reduced   590 angular points to   590 for atom    2.
 IPart=  5 Atom number   2 atomic number  2 has       22560 grid points.
 At   2 B  10: 100.0% Sh 100.0 % Bf    1 runs, min    4 max    4 av    4.0
 IPart=  5 Atom   2 batch   10 overlaps    2 atoms,     4 shells and     2 DB shells.   NGrid=      1180
 Pruned (  99, 590) grid will be used in numerical quadrature.
 Symmetry reduced   590 angular points to   590 for atom    2.
 IPart=  3 Atom number   2 atomic number  2 has       22560 grid points.
 At   2 B  11: 100.0% Sh 100.0 % Bf    1 runs, min    4 max    4 av    4.0
 IPart=  3 Atom   2 batch   11 overlaps    2 atoms,     4 shells and     2 DB shells.   NGrid=      1180
 Symmetry reduced   590 angular points to   590 for atom    2.
 Pruned (  99, 590) grid will be used in numerical quadrature.
 IPart=  9 Atom number   2 atomic number  2 has       22560 grid points.
 At   2 B  12: 100.0% Sh 100.0 % Bf    1 runs, min    4 max    4 av    4.0
 IPart=  9 Atom   2 batch   12 overlaps    2 atoms,     4 shells and     2 DB shells.   NGrid=      1180
 Symmetry reduced   590 angular points to   590 for atom    2.
 At   2 B  13: 100.0% Sh 100.0 % Bf    1 runs, min    4 max    4 av    4.0
 IPart=  6 Atom   2 batch   13 overlaps    2 atoms,     4 shells and     2 DB shells.   NGrid=       604
 Symmetry reduced   302 angular points to   302 for atom    2.
 At   2 B  14: 100.0% Sh 100.0 % Bf    1 runs, min    4 max    4 av    4.0
 IPart=  4 Atom   2 batch   14 overlaps    2 atoms,     4 shells and     2 DB shells.   NGrid=       604
 Symmetry reduced   302 angular points to   302 for atom    2.
 At   2 B  15: 100.0% Sh 100.0 % Bf    1 runs, min    4 max    4 av    4.0
 IPart=  2 Atom   2 batch   15 overlaps    2 atoms,     4 shells and     2 DB shells.   NGrid=       604
 Symmetry reduced   302 angular points to   302 for atom    2.
 At   2 B  16: 100.0% Sh 100.0 % Bf    1 runs, min    4 max    4 av    4.0
 IPart=  0 Atom   2 batch   16 overlaps    2 atoms,     4 shells and     2 DB shells.   NGrid=       604
 Symmetry reduced   302 angular points to   302 for atom    2.
 At   2 B  17:  75.0% Sh  75.0 % Bf    2 runs, min    1 max    2 av    1.5
 IPart= 10 Atom   2 batch   17 overlaps    2 atoms,     3 shells and     2 DB shells.   NGrid=       604
 Symmetry reduced   302 angular points to   302 for atom    2.
 At   2 B  18:  75.0% Sh  75.0 % Bf    2 runs, min    1 max    2 av    1.5
 IPart= 11 Atom   2 batch   18 overlaps    2 atoms,     3 shells and     2 DB shells.   NGrid=       604
 Symmetry reduced   302 angular points to   302 for atom    2.
 At   2 B  19:  75.0% Sh  75.0 % Bf    2 runs, min    1 max    2 av    1.5
 IPart=  1 Atom   2 batch   19 overlaps    2 atoms,     3 shells and     1 DB shells.   NGrid=       604
 Symmetry reduced   302 angular points to   302 for atom    2.
 At   2 B  20:  25.0% Sh  25.0 % Bf    1 runs, min    1 max    1 av    1.0
 IPart=  5 Atom   2 batch   20 overlaps    2 atoms,     1 shells and     1 DB shells.   NGrid=       604
 At   2 B  21:  25.0% Sh  25.0 % Bf    1 runs, min    1 max    1 av    1.0
 IPart=  6 Atom   2 batch   21 overlaps    2 atoms,     1 shells and     1 DB shells.   NGrid=       302
 Symmetry reduced   302 angular points to   302 for atom    2.
 IPart=  3         2252 of         2360 points in       2 batches and        9 microbatches, Max-NSigAt=       2 Max-NSgAt2=       2
 CalDSu-ThDecC:  IPartSL=    3    0 NPrtUSL=   12    1 IThBeg=    0 IThEnd=   11 CPU=   -1 GPU=   -1 NThAct=   12.
 IPart=  4         3458 of         3568 points in       4 batches and       32 microbatches, Max-NSigAt=       2 Max-NSgAt2=       2
 CalDSu-ThDecC:  IPartSL=    4    0 NPrtUSL=   12    1 IThBeg=    0 IThEnd=   11 CPU=   -1 GPU=   -1 NThAct=   11.
 IPart=  2         3470 of         3568 points in       4 batches and       30 microbatches, Max-NSigAt=       2 Max-NSgAt2=       2
 CalDSu-ThDecC:  IPartSL=    2    0 NPrtUSL=   12    1 IThBeg=    0 IThEnd=   11 CPU=   -1 GPU=   -1 NThAct=   10.
 IPart=  6         3727 of         3870 points in       5 batches and       27 microbatches, Max-NSigAt=       2 Max-NSgAt2=       2
 CalDSu-ThDecC:  IPartSL=    6    0 NPrtUSL=   12    1 IThBeg=    0 IThEnd=   11 CPU=   -1 GPU=   -1 NThAct=    9.
 IPart=  0         4409 of         4544 points in       5 batches and       45 microbatches, Max-NSigAt=       2 Max-NSgAt2=       2
 CalDSu-ThDecC:  IPartSL=    0    0 NPrtUSL=   12    1 IThBeg=    0 IThEnd=   11 CPU=   -1 GPU=   -1 NThAct=    8.
 IPart= 10         4952 of         4994 points in       3 batches and       23 microbatches, Max-NSigAt=       2 Max-NSgAt2=       2
 CalDSu-ThDecC:  IPartSL=   10    0 NPrtUSL=   12    1 IThBeg=    0 IThEnd=   11 CPU=   -1 GPU=   -1 NThAct=    7.
 IPart=  9         3546 of         3596 points in       2 batches and        8 microbatches, Max-NSigAt=       2 Max-NSgAt2=       2
 IPart=  8         4018 of         4320 points in       3 batches and        9 microbatches, Max-NSigAt=       2 Max-NSgAt2=       2
 CalDSu-ThDecC:  IPartSL=    9    0 NPrtUSL=   12    1 IThBeg=    0 IThEnd=   11 CPU=   -1 GPU=   -1 NThAct=    6.
 CalDSu-ThDecC:  IPartSL=    8    0 NPrtUSL=   12    1 IThBeg=    0 IThEnd=   11 CPU=   -1 GPU=   -1 NThAct=    5.
 IPart= 11         2872 of         2964 points in       3 batches and       23 microbatches, Max-NSigAt=       2 Max-NSgAt2=       2
 IPart=  5         3454 of         3568 points in       4 batches and       36 microbatches, Max-NSigAt=       2 Max-NSgAt2=       2
 CalDSu-ThDecC:  IPartSL=   11    0 NPrtUSL=   12    1 IThBeg=    0 IThEnd=   11 CPU=   -1 GPU=   -1 NThAct=    4.
 CalDSu-ThDecC:  IPartSL=    5    0 NPrtUSL=   12    1 IThBeg=    0 IThEnd=   11 CPU=   -1 GPU=   -1 NThAct=    3.
 IPart=  1         2892 of         2964 points in       3 batches and       27 microbatches, Max-NSigAt=       2 Max-NSgAt2=       2
 CalDSu-ThDecC:  IPartSL=    1    0 NPrtUSL=   12    1 IThBeg=    0 IThEnd=   11 CPU=   -1 GPU=   -1 NThAct=    2.
 IPart=  7         3530 of         3596 points in       2 batches and       10 microbatches, Max-NSigAt=       2 Max-NSgAt2=       2
 CalDSu-ThDecC:  IPartSL=    7    0 NPrtUSL=   12    1 IThBeg=    0 IThEnd=   11 CPU=   -1 GPU=   -1 NThAct=    1.
 Requested info about the electron count:
 NE=    3 NElCor=    0 El error=2.84D-10 rel=9.46D-11 Tolerance=1.00D-03
 Shell     2     absolute error=1.26D-09              Tolerance=1.20D-02
 Shell     2       signed error=1.26D-09              Tolerance=1.00D-01
 SetAtRh:  ITypeU=  14 NETotI=       3 ICharg=  0 NETot=       3.
 StAtR1:  I=    1 I1=    1 IA=  1 C=   1.0 OKShel=T
                                                  S
                                                  1
 StAtR1:  I=    2 I1=    2 IA=  2 C=   2.0 OKShel=T
                                                  S
                                                  2
          I=    1 IA=  1 I1=    1 NAtG=10 NE=   1.000 C=   1.000 Err=-1.35D-12
          I=    2 IA=  2 I1=    2 NAtG=11 NE=   2.000 C=   2.000 Err=-6.03D-12
 FoFCou: FMM=F IPFlag=           0 FMFlag=      100000 FMFlg1=           0
         NFxFlg=           0 DoJE=T BraDBF=F KetDBF=T FulRan=T
         wScrn=  0.000000 ICntrl=       500 IOpCl=  0 I1Cent=   200000004 NGrid=           0
         NMat0=    1 NMatS0=      1 NMatT0=    0 NMatD0=    1 NMtDS0=    0 NMtDT0=    0
 Symmetry not used in FoFCou.
 FoFCou:  KetSym=T NOpSet=  1 NOpAb=1 NOp=  1.
 FoFCou:  CnvScl= 1.00D+00 Thresh= 1.00D-12 IAcrcy=      10.
 ShPair: Thresh= 1.00D-12 NBox=     0 BxSize= 0.00D+00 RnKept= 1.46D+00
         NSMCal=                   10 NSMKep=                  10
 FoFCou: LinMIO=F DoNuc=F BraDBF=F KetDBF=T HaveP=T PDBF=T HaveZ=F HaveW=F
         NIJTC =       1 NIJTAt=       0 NIJTCD=       1 NIJTT =       2
         IJTBeg=       1 IJTEnd=       1 KLTBeg=       2 KLTEnd=       2
         IPTBeg=       2 IPTEnd=       2 IPTBCv=       2 IPTECv=       2
         IZTBeg=       1 IZTEnd=       1 IZTBCv=       1 IZTECv=       1
         IWTBeg=       2 IWTEnd=       2 IWTBCv=       2 IWTECv=       2
         INTBeg=       1 INTEnd=       0 IFTBCv=       1 IFTECv=       1
 Entering DenIrr
 DenIrr was handed  4294966722 working-precision words and    12 shell-pairs
 Leaving DenIrr, iEnd w/o den=        2132 nHerm=          12.
 CoulSu-InSpLW:  IPartL=    0 NPrtUS=   12 NPrtUL=    1 DoSpLW=F IThBeg=    0 IThEnd=   11 NThAct=   12.
 CoulSu:  IncTry=  1024 NBBP=             20 NTPThr=   100 NPartT=   12 Incr=           1 LDynOK=F GPUOK=F.
 CoulSu:  NPrtUS=  12 ThrOK=T IAlg=1 LenDen=          12 LWGrdD=           0 DoCopy=T ISkipM=0
          DoSpLW=F IThBeg=    0 IThEnd=   11.
 CoulSu:  IPart=    0 IPartR=    0 CPU=   -1 GPU=   -1.
 CoulSu:  IPart=    5 IPartR=    5 CPU=   -1 GPU=   -1.
 Enter PrismC:  IPart=  0 JobTyp=20 DoJE=T Cont=T.
 CoulSu:  IPart=   10 IPartR=   10 CPU=   -1 GPU=   -1.
 CoulSu:  IPart=   11 IPartR=   11 CPU=   -1 GPU=   -1.
 CoulSu:  IPart=    6 IPartR=    6 CPU=   -1 GPU=   -1.
 PrismC:  IPart=     0 DynPar=F LinDyn=F Incr=           1 UseFst=F UseS4=T ISplat=2.
 Enter PrismC:  IPart=  5 JobTyp=20 DoJE=T Cont=T.
 PrismC was handed   357912717 working-precision words and    10 shell-pairs
 Enter PrismC:  IPart=  6 JobTyp=20 DoJE=T Cont=T.
 CoulSu:  IPart=    7 IPartR=    7 CPU=   -1 GPU=   -1.
 CoulSu:  IPart=    2 IPartR=    2 CPU=   -1 GPU=   -1.
 CoulSu:  IPart=    8 IPartR=    8 CPU=   -1 GPU=   -1.
 Enter PrismC:  IPart=  7 JobTyp=20 DoJE=T Cont=T.
 Enter PrismC:  IPart=  8 JobTyp=20 DoJE=T Cont=T.
 PrismC:  IPart=     5 DynPar=F LinDyn=F Incr=           1 UseFst=F UseS4=T ISplat=2.
 PrismC was handed   357912717 working-precision words and    10 shell-pairs
 PrismC:  IPart=     8 DynPar=F LinDyn=F Incr=           1 UseFst=F UseS4=T ISplat=2.
 PrismC was handed   357912717 working-precision words and    10 shell-pairs
 PrismC:  IPart=     7 DynPar=F LinDyn=F Incr=           1 UseFst=F UseS4=T ISplat=2.
 PrismC was handed   357912717 working-precision words and    10 shell-pairs
 CoulSu:  IPart=    9 IPartR=    9 CPU=   -1 GPU=   -1.
 PrismC:  IPart=     6 DynPar=F LinDyn=F Incr=           1 UseFst=F UseS4=T ISplat=2.
 PrismC was handed   357912717 working-precision words and    10 shell-pairs
 CoulSu:  IPart=    3 IPartR=    3 CPU=   -1 GPU=   -1.
 CoulSu:  IPart=    4 IPartR=    4 CPU=   -1 GPU=   -1.
 Enter PrismC:  IPart=  2 JobTyp=20 DoJE=T Cont=T.
 CoulSu:  IPart=    1 IPartR=    1 CPU=   -1 GPU=   -1.
 PrismC:  IPart=     2 DynPar=F LinDyn=F Incr=           1 UseFst=F UseS4=T ISplat=2.
 PrismC was handed   357912717 working-precision words and    10 shell-pairs
 Enter PrismC:  IPart=  4 JobTyp=20 DoJE=T Cont=T.
 Enter PrismC:  IPart=  3 JobTyp=20 DoJE=T Cont=T.
 PrismC:  IPart=     4 DynPar=F LinDyn=F Incr=           1 UseFst=F UseS4=T ISplat=2.
 Enter PrismC:  IPart=  9 JobTyp=20 DoJE=T Cont=T.
 PrismC:  IPart=     3 DynPar=F LinDyn=F Incr=           1 UseFst=F UseS4=T ISplat=2.
 PrismC was handed   357912717 working-precision words and    10 shell-pairs
 Enter PrismC:  IPart=  1 JobTyp=20 DoJE=T Cont=T.
 PrismC was handed   357912717 working-precision words and    10 shell-pairs
 PrismC:  IPart=     9 DynPar=F LinDyn=F Incr=           1 UseFst=F UseS4=T ISplat=2.
 PrismC was handed   357912717 working-precision words and    10 shell-pairs
 PrismC:  IPart=     1 DynPar=F LinDyn=F Incr=           1 UseFst=F UseS4=T ISplat=2.
 PrismC was handed   357912717 working-precision words and    10 shell-pairs
 Enter PrismC:  IPart= 10 JobTyp=20 DoJE=T Cont=T.
 PrismC:  IPart=    10 DynPar=F LinDyn=F Incr=           1 UseFst=F UseS4=T ISplat=2.
 PrismC was handed   357912717 working-precision words and    10 shell-pairs
 Enter PrismC:  IPart= 11 JobTyp=20 DoJE=T Cont=T.
 PrismC:  IPart=    11 DynPar=F LinDyn=F Incr=           1 UseFst=F UseS4=T ISplat=2.
 PrismC was handed   357912717 working-precision words and    10 shell-pairs
 IPart=  6 NShTot=           0 NShNF=           0 NShFF=           0 MinMC=     200
           NShCPU=           0 NBCPU=           0 AvBCPU=         0.0
           NShGPU=           0 NBGPU=           0 AvBGPU=         0.0
 IPart=  8 NShTot=           0 NShNF=           0 NShFF=           0 MinMC=     200
           NShCPU=           0 NBCPU=           0 AvBCPU=         0.0
           NShGPU=           0 NBGPU=           0 AvBGPU=         0.0
 IPart=  2 NShTot=           0 NShNF=           0 NShFF=           0 MinMC=     200
           NShCPU=           0 NBCPU=           0 AvBCPU=         0.0
           NShGPU=           0 NBGPU=           0 AvBGPU=         0.0
 CoulSu-ThDecC:  IPartSL=    6    0 NPrtUSL=   12    1 IThBeg=    0 IThEnd=   11 CPU=   -1 GPU=   -1 NThAct=   12.
 CoulSu-ThDecC:  IPartSL=    2    0 NPrtUSL=   12    1 IThBeg=    0 IThEnd=   11 CPU=   -1 GPU=   -1 NThAct=   11.
 IPart=  4 NShTot=           0 NShNF=           0 NShFF=           0 MinMC=     200
           NShCPU=           0 NBCPU=           0 AvBCPU=         0.0
           NShGPU=           0 NBGPU=           0 AvBGPU=         0.0
 CoulSu-ThDecC:  IPartSL=    8    0 NPrtUSL=   12    1 IThBeg=    0 IThEnd=   11 CPU=   -1 GPU=   -1 NThAct=   10.
 CoulSu-ThDecC:  IPartSL=    4    0 NPrtUSL=   12    1 IThBeg=    0 IThEnd=   11 CPU=   -1 GPU=   -1 NThAct=    9.
 IPart=  0 NShTot=          20 NShNF=          20 NShFF=           0 MinMC=     200
           NShCPU=          20 NBCPU=          20 AvBCPU=         1.0
           NShGPU=           0 NBGPU=           0 AvBGPU=         0.0
 CoulSu-ThDecC:  IPartSL=    0    0 NPrtUSL=   12    1 IThBeg=    0 IThEnd=   11 CPU=   -1 GPU=   -1 NThAct=    8.
 IPart= 10 NShTot=           0 NShNF=           0 NShFF=           0 MinMC=     200
           NShCPU=           0 NBCPU=           0 AvBCPU=         0.0
           NShGPU=           0 NBGPU=           0 AvBGPU=         0.0
 CoulSu-ThDecC:  IPartSL=   10    0 NPrtUSL=   12    1 IThBeg=    0 IThEnd=   11 CPU=   -1 GPU=   -1 NThAct=    7.
 IPart=  7 NShTot=           0 NShNF=           0 NShFF=           0 MinMC=     200
           NShCPU=           0 NBCPU=           0 AvBCPU=         0.0
           NShGPU=           0 NBGPU=           0 AvBGPU=         0.0
 CoulSu-ThDecC:  IPartSL=    7    0 NPrtUSL=   12    1 IThBeg=    0 IThEnd=   11 CPU=   -1 GPU=   -1 NThAct=    6.
 IPart=  5 NShTot=           0 NShNF=           0 NShFF=           0 MinMC=     200
           NShCPU=           0 NBCPU=           0 AvBCPU=         0.0
           NShGPU=           0 NBGPU=           0 AvBGPU=         0.0
 CoulSu-ThDecC:  IPartSL=    5    0 NPrtUSL=   12    1 IThBeg=    0 IThEnd=   11 CPU=   -1 GPU=   -1 NThAct=    5.
 IPart=  3 NShTot=           0 NShNF=           0 NShFF=           0 MinMC=     200
           NShCPU=           0 NBCPU=           0 AvBCPU=         0.0
           NShGPU=           0 NBGPU=           0 AvBGPU=         0.0
 CoulSu-ThDecC:  IPartSL=    3    0 NPrtUSL=   12    1 IThBeg=    0 IThEnd=   11 CPU=   -1 GPU=   -1 NThAct=    4.
 IPart=  9 NShTot=           0 NShNF=           0 NShFF=           0 MinMC=     200
           NShCPU=           0 NBCPU=           0 AvBCPU=         0.0
           NShGPU=           0 NBGPU=           0 AvBGPU=         0.0
 CoulSu-ThDecC:  IPartSL=    9    0 NPrtUSL=   12    1 IThBeg=    0 IThEnd=   11 CPU=   -1 GPU=   -1 NThAct=    3.
 IPart=  1 NShTot=           0 NShNF=           0 NShFF=           0 MinMC=     200
           NShCPU=           0 NBCPU=           0 AvBCPU=         0.0
           NShGPU=           0 NBGPU=           0 AvBGPU=         0.0
 CoulSu-ThDecC:  IPartSL=    1    0 NPrtUSL=   12    1 IThBeg=    0 IThEnd=   11 CPU=   -1 GPU=   -1 NThAct=    2.
 IPart= 11 NShTot=           0 NShNF=           0 NShFF=           0 MinMC=     200
           NShCPU=           0 NBCPU=           0 AvBCPU=         0.0
           NShGPU=           0 NBGPU=           0 AvBGPU=         0.0
 CoulSu-ThDecC:  IPartSL=   11    0 NPrtUSL=   12    1 IThBeg=    0 IThEnd=   11 CPU=   -1 GPU=   -1 NThAct=    1.
 CoulSu:  NxtVal=             13 LenVP=      357912718 MinMC=     200.
 Entering FocIrr
 FocIrr was handed  4294964567 working-precision words and    10 shell-pairs
 Leaving FocIrr
 Entering DenIrr
 DenIrr was handed  4294966722 working-precision words and    12 shell-pairs
 Leaving DenIrr, iEnd w/o den=        2376 nHerm=          63.
 CoulSu-InSpLW:  IPartL=    0 NPrtUS=   12 NPrtUL=    1 DoSpLW=F IThBeg=    0 IThEnd=   11 NThAct=   12.
 CoulSu:  IncTry=  1024 NBBP=             20 NTPThr=   100 NPartT=   12 Incr=           1 LDynOK=F GPUOK=F.
 CoulSu:  NPrtUS=  12 ThrOK=T IAlg=1 LenDen=          63 LWGrdD=           0 DoCopy=T ISkipM=0
          DoSpLW=F IThBeg=    0 IThEnd=   11.
 CoulSu:  IPart=    8 IPartR=    8 CPU=   -1 GPU=   -1.
 CoulSu:  IPart=    4 IPartR=    4 CPU=   -1 GPU=   -1.
 CoulSu:  IPart=    1 IPartR=    1 CPU=   -1 GPU=   -1.
 CoulSu:  IPart=   11 IPartR=   11 CPU=   -1 GPU=   -1.
 CoulSu:  IPart=    0 IPartR=    0 CPU=   -1 GPU=   -1.
 CoulSu:  IPart=    6 IPartR=    6 CPU=   -1 GPU=   -1.
 Enter PrismC:  IPart=  8 JobTyp=20 DoJE=T Cont=F.
 Enter PrismC:  IPart=  1 JobTyp=20 DoJE=T Cont=F.
 PrismC:  IPart=     8 DynPar=F LinDyn=F Incr=           1 UseFst=F UseS4=T ISplat=2.
 PrismC:  IPart=     1 DynPar=F LinDyn=F Incr=           1 UseFst=F UseS4=T ISplat=2.
 PrismC was handed   357912595 working-precision words and    10 shell-pairs
 CoulSu:  IPart=    9 IPartR=    9 CPU=   -1 GPU=   -1.
 PrismC was handed   357912595 working-precision words and    10 shell-pairs
 CoulSu:  IPart=    7 IPartR=    7 CPU=   -1 GPU=   -1.
 Enter PrismC:  IPart=  4 JobTyp=20 DoJE=T Cont=F.
 CoulSu:  IPart=    5 IPartR=    5 CPU=   -1 GPU=   -1.
 PrismC:  IPart=     4 DynPar=F LinDyn=F Incr=           1 UseFst=F UseS4=T ISplat=2.
 PrismC was handed   357912595 working-precision words and    10 shell-pairs
 CoulSu:  IPart=    3 IPartR=    3 CPU=   -1 GPU=   -1.
 Enter PrismC:  IPart=  7 JobTyp=20 DoJE=T Cont=F.
 CoulSu:  IPart=    2 IPartR=    2 CPU=   -1 GPU=   -1.
 PrismC:  IPart=     7 DynPar=F LinDyn=F Incr=           1 UseFst=F UseS4=T ISplat=2.
 CoulSu:  IPart=   10 IPartR=   10 CPU=   -1 GPU=   -1.
 PrismC was handed   357912595 working-precision words and    10 shell-pairs
 Enter PrismC:  IPart=  5 JobTyp=20 DoJE=T Cont=F.
 Enter PrismC:  IPart= 10 JobTyp=20 DoJE=T Cont=F.
 PrismC:  IPart=     5 DynPar=F LinDyn=F Incr=           1 UseFst=F UseS4=T ISplat=2.
 Enter PrismC:  IPart=  0 JobTyp=20 DoJE=T Cont=F.
 PrismC:  IPart=    10 DynPar=F LinDyn=F Incr=           1 UseFst=F UseS4=T ISplat=2.
 Enter PrismC:  IPart= 11 JobTyp=20 DoJE=T Cont=F.
 PrismC:  IPart=     0 DynPar=F LinDyn=F Incr=           1 UseFst=F UseS4=T ISplat=2.
 Enter PrismC:  IPart=  3 JobTyp=20 DoJE=T Cont=F.
 PrismC:  IPart=    11 DynPar=F LinDyn=F Incr=           1 UseFst=F UseS4=T ISplat=2.
 PrismC was handed   357912595 working-precision words and    10 shell-pairs
 PrismC:  IPart=     3 DynPar=F LinDyn=F Incr=           1 UseFst=F UseS4=T ISplat=2.
 Enter PrismC:  IPart=  9 JobTyp=20 DoJE=T Cont=F.
 PrismC was handed   357912595 working-precision words and    10 shell-pairs
 Enter PrismC:  IPart=  2 JobTyp=20 DoJE=T Cont=F.
 PrismC:  IPart=     9 DynPar=F LinDyn=F Incr=           1 UseFst=F UseS4=T ISplat=2.
 PrismC was handed   357912595 working-precision words and    10 shell-pairs
 Enter PrismC:  IPart=  6 JobTyp=20 DoJE=T Cont=F.
 PrismC was handed   357912595 working-precision words and    10 shell-pairs
 PrismC:  IPart=     2 DynPar=F LinDyn=F Incr=           1 UseFst=F UseS4=T ISplat=2.
 PrismC was handed   357912595 working-precision words and    10 shell-pairs
 PrismC:  IPart=     6 DynPar=F LinDyn=F Incr=           1 UseFst=F UseS4=T ISplat=2.
 PrismC was handed   357912595 working-precision words and    10 shell-pairs
 PrismC was handed   357912595 working-precision words and    10 shell-pairs
 PrismC was handed   357912595 working-precision words and    10 shell-pairs
 IPart=  8 NShTot=           0 NShNF=           0 NShFF=           0 MinMC=     180
           NShCPU=           0 NBCPU=           0 AvBCPU=         0.0
           NShGPU=           0 NBGPU=           0 AvBGPU=         0.0
 CoulSu-ThDecC:  IPartSL=    8    0 NPrtUSL=   12    1 IThBeg=    0 IThEnd=   11 CPU=   -1 GPU=   -1 NThAct=   12.
 IPart=  4 NShTot=           0 NShNF=           0 NShFF=           0 MinMC=     180
           NShCPU=           0 NBCPU=           0 AvBCPU=         0.0
           NShGPU=           0 NBGPU=           0 AvBGPU=         0.0
 CoulSu-ThDecC:  IPartSL=    4    0 NPrtUSL=   12    1 IThBeg=    0 IThEnd=   11 CPU=   -1 GPU=   -1 NThAct=   11.
 IPart= 10 NShTot=           0 NShNF=           0 NShFF=           0 MinMC=     180
           NShCPU=           0 NBCPU=           0 AvBCPU=         0.0
           NShGPU=           0 NBGPU=           0 AvBGPU=         0.0
 CoulSu-ThDecC:  IPartSL=   10    0 NPrtUSL=   12    1 IThBeg=    0 IThEnd=   11 CPU=   -1 GPU=   -1 NThAct=   10.
 IPart=  0 NShTot=           0 NShNF=           0 NShFF=           0 MinMC=     180
           NShCPU=           0 NBCPU=           0 AvBCPU=         0.0
           NShGPU=           0 NBGPU=           0 AvBGPU=         0.0
 CoulSu-ThDecC:  IPartSL=    0    0 NPrtUSL=   12    1 IThBeg=    0 IThEnd=   11 CPU=   -1 GPU=   -1 NThAct=    9.
 IPart=  6 NShTot=           0 NShNF=           0 NShFF=           0 MinMC=     180
           NShCPU=           0 NBCPU=           0 AvBCPU=         0.0
           NShGPU=           0 NBGPU=           0 AvBGPU=         0.0
 CoulSu-ThDecC:  IPartSL=    6    0 NPrtUSL=   12    1 IThBeg=    0 IThEnd=   11 CPU=   -1 GPU=   -1 NThAct=    8.
 IPart=  2 NShTot=           0 NShNF=           0 NShFF=           0 MinMC=     180
           NShCPU=           0 NBCPU=           0 AvBCPU=         0.0
           NShGPU=           0 NBGPU=           0 AvBGPU=         0.0
 CoulSu-ThDecC:  IPartSL=    2    0 NPrtUSL=   12    1 IThBeg=    0 IThEnd=   11 CPU=   -1 GPU=   -1 NThAct=    7.
 IPart=  1 NShTot=           0 NShNF=           0 NShFF=           0 MinMC=     180
           NShCPU=           0 NBCPU=           0 AvBCPU=         0.0
           NShGPU=           0 NBGPU=           0 AvBGPU=         0.0
 CoulSu-ThDecC:  IPartSL=    1    0 NPrtUSL=   12    1 IThBeg=    0 IThEnd=   11 CPU=   -1 GPU=   -1 NThAct=    6.
 IPart=  7 NShTot=           0 NShNF=           0 NShFF=           0 MinMC=     180
           NShCPU=           0 NBCPU=           0 AvBCPU=         0.0
           NShGPU=           0 NBGPU=           0 AvBGPU=         0.0
 CoulSu-ThDecC:  IPartSL=    7    0 NPrtUSL=   12    1 IThBeg=    0 IThEnd=   11 CPU=   -1 GPU=   -1 NThAct=    5.
 IPart= 11 NShTot=           0 NShNF=           0 NShFF=           0 MinMC=     180
           NShCPU=           0 NBCPU=           0 AvBCPU=         0.0
           NShGPU=           0 NBGPU=           0 AvBGPU=         0.0
 CoulSu-ThDecC:  IPartSL=   11    0 NPrtUSL=   12    1 IThBeg=    0 IThEnd=   11 CPU=   -1 GPU=   -1 NThAct=    4.
 IPart=  9 NShTot=           0 NShNF=           0 NShFF=           0 MinMC=     180
           NShCPU=           0 NBCPU=           0 AvBCPU=         0.0
           NShGPU=           0 NBGPU=           0 AvBGPU=         0.0
 CoulSu-ThDecC:  IPartSL=    9    0 NPrtUSL=   12    1 IThBeg=    0 IThEnd=   11 CPU=   -1 GPU=   -1 NThAct=    3.
 IPart=  5 NShTot=           0 NShNF=           0 NShFF=           0 MinMC=     180
           NShCPU=           0 NBCPU=           0 AvBCPU=         0.0
           NShGPU=           0 NBGPU=           0 AvBGPU=         0.0
 CoulSu-ThDecC:  IPartSL=    5    0 NPrtUSL=   12    1 IThBeg=    0 IThEnd=   11 CPU=   -1 GPU=   -1 NThAct=    2.
 IPart=  3 NShTot=           0 NShNF=           0 NShFF=           0 MinMC=     180
           NShCPU=           0 NBCPU=           0 AvBCPU=         0.0
           NShGPU=           0 NBGPU=           0 AvBGPU=         0.0
 CoulSu-ThDecC:  IPartSL=    3    0 NPrtUSL=   12    1 IThBeg=    0 IThEnd=   11 CPU=   -1 GPU=   -1 NThAct=    1.
 CoulSu:  NxtVal=             13 LenVP=      357912596 MinMC=     180.
 Entering FocIrr
 FocIrr was handed  4294964221 working-precision words and    10 shell-pairs
 Leaving FocIrr
 FoFCou: FMM=F IPFlag=           0 FMFlag=      100000 FMFlg1=           0
         NFxFlg=           0 DoJE=T BraDBF=T KetDBF=T FulRan=T
         wScrn=  0.000000 ICntrl=       500 IOpCl=  0 I1Cent=   200000006 NGrid=           0
         NMat0=    1 NMatS0=      1 NMatT0=    0 NMatD0=    1 NMtDS0=    0 NMtDT0=    0
 Symmetry not used in FoFCou.
 FoFCou:  KetSym=T NOpSet=  1 NOpAb=1 NOp=  1.
 FoFCou:  CnvScl= 1.00D+00 Thresh= 1.00D-12 IAcrcy=      10.
 FoFCou: LinMIO=F DoNuc=F BraDBF=T KetDBF=T HaveP=T PDBF=T HaveZ=F HaveW=F
         NIJTC =       0 NIJTAt=       0 NIJTCD=       1 NIJTT =       1
         IJTBeg=       1 IJTEnd=       1 KLTBeg=       1 KLTEnd=       1
         IPTBeg=       1 IPTEnd=       1 IPTBCv=       1 IPTECv=       1
         IZTBeg=       1 IZTEnd=       0 IZTBCv=       1 IZTECv=       1
         IWTBeg=       1 IWTEnd=       1 IWTBCv=       1 IWTECv=       1
         INTBeg=       1 INTEnd=       0 IFTBCv=       1 IFTECv=       1
 Entering DenIrr
 DenIrr was handed  4294966722 working-precision words and     2 shell-pairs
 Leaving DenIrr, iEnd w/o den=        1215 nHerm=           2.
 CoulSu-InSpLW:  IPartL=    0 NPrtUS=   12 NPrtUL=    1 DoSpLW=F IThBeg=    0 IThEnd=   11 NThAct=   12.
 CoulSu:  IncTry=  1024 NBBP=              4 NTPThr=   100 NPartT=   12 Incr=           1 LDynOK=F GPUOK=F.
 CoulSu:  NPrtUS=  12 ThrOK=T IAlg=1 LenDen=           2 LWGrdD=           0 DoCopy=T ISkipM=0
          DoSpLW=F IThBeg=    0 IThEnd=   11.
 CoulSu:  IPart=    8 IPartR=    8 CPU=   -1 GPU=   -1.
 CoulSu:  IPart=    9 IPartR=    9 CPU=   -1 GPU=   -1.
[...]
      3  -0.229871D-02 -0.145451D+00  0.269948D-02  0.140489D-01
      4   0.126553D-01  0.386269D+00 -0.670980D-02 -0.518646D-01
 Beta  transition density between states   16   14:
                 1             2             3             4 
      1   0.120981D-02 -0.208937D-01 -0.228681D-03 -0.199041D-02
      2  -0.187455D-02  0.563820D-01 -0.131271D-01 -0.899334D-02
      3   0.229871D-02  0.145451D+00 -0.269948D-02 -0.140489D-01
      4  -0.126553D-01 -0.386269D+00  0.670980D-02  0.518646D-01
 1st state is                      16
 2nd state is                      15
 Alpha MO transition density between states   16   15:
                 1             2             3             4 
      1  -0.421609D-03  0.000000D+00  0.000000D+00  0.000000D+00
      2  -0.630678D-02 -0.185270D-01  0.000000D+00  0.000000D+00
      3   0.356512D-02  0.323763D-01 -0.140181D-01  0.000000D+00
      4   0.000000D+00  0.115728D+00 -0.946712D-01  0.329667D-01
 Beta  MO transition density between states   16   15:
                 1             2             3             4 
      1  -0.421609D-03  0.000000D+00  0.000000D+00  0.000000D+00
      2  -0.630678D-02 -0.185270D-01  0.000000D+00  0.000000D+00
      3   0.356512D-02  0.323763D-01 -0.140181D-01  0.000000D+00
      4   0.000000D+00  0.115728D+00 -0.946712D-01  0.329667D-01
 Alpha transition density between states   16   15:
                 1             2             3             4 
      1   0.770524D-03  0.370109D-01 -0.400017D-02  0.178805D-02
      2  -0.190796D-01 -0.102570D+00 -0.760647D-03  0.308120D-01
      3  -0.628703D-02 -0.142136D+00  0.159396D-01 -0.184805D-01
      4   0.177519D-01  0.320163D+00 -0.380378D-01  0.493977D-01
 Beta  transition density between states   16   15:
                 1             2             3             4 
      1   0.770524D-03  0.370109D-01 -0.400017D-02  0.178805D-02
      2  -0.190796D-01 -0.102570D+00 -0.760647D-03  0.308120D-01
      3  -0.628703D-02 -0.142136D+00  0.159396D-01 -0.184805D-01
      4   0.177519D-01  0.320163D+00 -0.380378D-01  0.493977D-01
 ENTER FOP ... ITERATION NO.  3
          ************************************
          *                                  *
          *   TOTAL ENERGY=     1.42731566   *
          ************************************
 FINAL COEFFICIENT MATRIX
 ROW NO  1
     0.2773733    0.4151527    0.4542601    0.1184972
 ROW NO  2
    -0.5010149    1.2614711   -0.6376796   -0.2333709
 ROW NO  3
     1.1618346   -0.1613348   -0.1891176   -0.6874225
 ROW NO  4
     0.3330994   -1.1428055   -1.0798282    1.7558350
 FINAL EIGENVECTOR
     0.0261135   -0.0093757   -0.0093757   -0.0054674    0.0926484   -0.0054674   -0.0070417   -0.0283990   -0.0283990   -0.0070417
     0.0038508    0.0735487    0.0038508   -0.0048803   -0.0048803    0.9916148
 MCSCF converged.
 Leave Link  510 at Mon Mar  8 10:20:41 2021, MaxMem=  4294967296 cpu:              15.7 elap:               1.3
 (Enter /opt/gaussian/gdv-20180628-i14+/gdv/l601.exe)
 GetPMM: IRwPM=  824 LRwPM=    0 LPMAll=    2
 GetPCM: File not found, return IValue=0.
 Copying SCF densities to generalized density rwf, IOpCl= 0 IROHF=3.

 **********************************************************************

            Population analysis using the SCF Density.

 **********************************************************************

 Alpha  occ. eigenvalues --    0.00000
 Alpha virt. eigenvalues --    0.00000   0.00000   0.00000
     Molecular Orbital Coefficients:
                           1         2         3         4
                           O         V         V         V
     Eigenvalues --     0.00000   0.00000   0.00000   0.00000
   1 1   H  1S          0.27737  -0.50101   1.16183   0.33310
   2        2S          0.41515   1.26147  -0.16133  -1.14281
   3 2   He 1S          0.45426  -0.63768  -0.18912  -1.07983
   4        2S          0.11850  -0.23337  -0.68742   1.75583
     Alpha Density Matrix:
                           1         2         3         4
   1 1   H  1S          0.05199
   2        2S          0.00853   0.03714
   3 2   He 1S          0.14256   0.04086   0.40072
   4        2S          0.06555  -0.02114   0.18357   0.11444
     Beta Density Matrix:
                           1         2         3         4
   1 1   H  1S          0.05199
   2        2S          0.00853   0.03714
   3 2   He 1S          0.14256   0.04086   0.40072
   4        2S          0.06555  -0.02114   0.18357   0.11444
    Full Mulliken population analysis:
                           1         2         3         4
   1 1   H  1S          0.10398
   2        2S          0.01124   0.07429
   3 2   He 1S          0.08562   0.02731   0.80145
   4        2S          0.07028  -0.03157   0.23282   0.22888
     Gross orbital populations:
                         Total     Alpha     Beta      Spin
   1 1   H  1S          0.27112   0.13556   0.13556   0.00000
   2        2S          0.08127   0.04063   0.04063  -0.00000
   3 2   He 1S          1.14720   0.57360   0.57360   0.00000
   4        2S          0.50041   0.25021   0.25021   0.00000
          Condensed to atoms (all electrons):
               1          2
     1  H    0.200746   0.151641
     2  He   0.151641   1.495972
          Atomic-Atomic Spin Densities.
               1          2
     1  H    0.000000  -0.000000
     2  He  -0.000000   0.000000
 Mulliken charges and spin densities:
               1          2
     1  H    0.647613   0.000000
     2  He   0.352387   0.000000
 Sum of Mulliken charges =   1.00000   0.00000
 Mulliken charges and spin densities with hydrogens summed into heavy atoms:
               1          2
     2  He   1.000000   0.000000
 DipInt: DoE/N= T F RetVal/Mat= T F Init=T NMatP=  1 IDeriv=0 Min/MaxMlt=  0  4
 Entering OneElI...
 OneElI was handed  4294967094 working-precision words.
 Multipole integrals L=0 to 4 MinM= 0 MaxM= 0.
 Requested accuracy = 0.1000D-12
 ShPair: Thresh= 1.00D-13 NBox=     0 BxSize= 0.00D+00 RnKept= 1.46D+00
         NSMCal=                   10 NSMKep=                  10
 PrmmSu-InSpLW:  IPartL=    0 NPrtUS=    1 NPrtUL=    1 DoSpLW=F IThBeg=    0 IThEnd=    0 NThAct=    1.
 PrSmSu:  IncTry=   512 NBBP=             10 NTPThr=   100 NPartT=    1 Incr=           1 LDynOK=F GPUOK=F.
 PrsmSu:  NPrtUS=   1 ThrOK=F IAlg=2 LenDen=           0 ISkipM=0 DoSpLW=F IThBeg=    0 IThEnd=    0.
 Prism:   IPart=     0 DynPar=F LinDyn=F Incr=           1.
 PRISM was handed  4294965418 working-precision words and    10 shell-pairs
 IPart=  0 NShTot=          10 NBatch=           3 AvBLen=         3.3
 PrsmSu-ThDecC:  IPartSL=    0    0 NPrtUSL=    1    1 IThBeg=    0 IThEnd=    0 CPU=   -1 GPU=   -1 NThAct=    1.
 PrSmSu:  NxtVal=              2.
 Electronic moments (au):
         -2.00000000         -0.00000000         -0.00000000         -0.95771872
         -0.66644707         -0.66644707         -1.61384326         -0.00000000
         -0.00000000         -0.00000000         -0.00000000         -0.00000000
         -1.10056553         -0.00000000         -0.00000000         -0.19629400
         -0.00000000         -0.00000000         -0.19629400         -0.00000000
         -1.20283690         -1.20283690         -3.70145879         -0.00000000
         -0.00000000         -0.00000000         -0.00000000         -0.00000000
         -0.00000000         -0.40094563         -0.73542962         -0.73542962
         -0.00000000         -0.00000000         -0.00000000
 Electronic spatial extent (au):  <R**2>=              2.9467
 DipInt: DoE/N= F T RetVal/Mat= T F Init=T NMatP=  1 IDeriv=0 Min/MaxMlt=  0  4
 Nuclear    moments (au):
          3.00000000          0.00000000          0.00000000          0.72943428
          0.00000000          0.00000000          1.59622312          0.00000000
          0.00000000          0.00000000          0.00000000          0.00000000
          0.38811329          0.00000000          0.00000000          0.00000000
          0.00000000          0.00000000          0.00000000          0.00000000
          0.00000000          0.00000000          0.84930942          0.00000000
          0.00000000          0.00000000          0.00000000          0.00000000
          0.00000000          0.00000000          0.00000000          0.00000000
          0.00000000          0.00000000          0.00000000
 Total      moments (au):
          1.00000000          0.00000000          0.00000000         -0.22828444
         -0.66644707         -0.66644707         -0.01762013          0.00000000
          0.00000000          0.00000000          0.00000000          0.00000000
         -0.71245223          0.00000000          0.00000000         -0.19629400
          0.00000000          0.00000000         -0.19629400          0.00000000
         -1.20283690         -1.20283690         -2.85214937          0.00000000
          0.00000000          0.00000000          0.00000000          0.00000000
          0.00000000         -0.40094563         -0.73542962         -0.73542962
          0.00000000          0.00000000          0.00000000
 Traceless Quadrup. (au):
         -0.21627565         -0.21627565          0.43255129          0.00000000
          0.00000000          0.00000000
 Charge=              1.0000 electrons
 Dipole moment (field-independent basis, Debye):
    X=              0.0000    Y=              0.0000    Z=             -0.5802  Tot=              0.5802
 Quadrupole moment (field-independent basis, Debye-Ang):
   XX=             -0.8964   YY=             -0.8964   ZZ=             -0.0237
   XY=              0.0000   XZ=              0.0000   YZ=              0.0000
 Traceless Quadrupole moment (field-independent basis, Debye-Ang):
   XX=             -0.2909   YY=             -0.2909   ZZ=              0.5818
   XY=              0.0000   XZ=              0.0000   YZ=              0.0000
 Octapole moment (field-independent basis, Debye-Ang**2):
  XXX=              0.0000  YYY=              0.0000  ZZZ=             -0.5071  XYY=              0.0000
  XXY=              0.0000  XXZ=             -0.1397  XZZ=              0.0000  YZZ=              0.0000
  YYZ=             -0.1397  XYZ=              0.0000
 Hexadecapole moment (field-independent basis, Debye-Ang**3):
 XXXX=             -0.4530 YYYY=             -0.4530 ZZZZ=             -1.0743 XXXY=              0.0000
 XXXZ=              0.0000 YYYX=              0.0000 YYYZ=              0.0000 ZZZX=              0.0000
 ZZZY=              0.0000 XXYY=             -0.1510 XXZZ=             -0.2770 YYZZ=             -0.2770
 XXYZ=              0.0000 YYXZ=              0.0000 ZZXY=              0.0000
 N-N= 1.370925416891D+00 E-N=-8.363294300069D+00  KE= 3.086333959595D+00
 Kinetic energy over alpha MOs:
                1             2             3             4 
      1  0.974391D+00
      2 -0.100124D+01  0.158037D+01
      3  0.625554D-01 -0.421021D-01  0.185693D+01
      4 -0.945324D+00  0.133265D+01  0.910252D+00  0.297457D+01
 Orbital energies and kinetic energies (alpha):
                                 1                 2
   1         O                 0.000000          0.974391
   2         V                 0.000000          1.580373
   3         V                 0.000000          1.856927
   4         V                 0.000000          2.974569
 Total kinetic energy from orbitals= 1.948782354468D+00
                          Isotropic Fermi Contact Couplings
        Atom                 a.u.       MegaHertz       Gauss      10(-4) cm-1
     1  H(1)               0.00000       0.00000       0.00000       0.00000
     2  He(3)              0.00000      -0.00000      -0.00000      -0.00000
 Entering OneElI...
 OneElI was handed  4294967058 working-precision words.
 Calculate electrostatic properties
    NBasis =     4  MinDer = 0  MaxDer = 0
    NGrid  =     2  NMatD  =   1
 Requested accuracy = 0.1000D-12
 ShPair: Thresh= 1.00D-13 NBox=     0 BxSize= 0.00D+00 RnKept= 1.46D+00
         NSMCal=                   10 NSMKep=                   9
 --------------------------------------------------------
       Center         ----  Spin Dipole Couplings  ----
                      3XX-RR        3YY-RR        3ZZ-RR
 --------------------------------------------------------
     1   Atom        0.000000      0.000000      0.000000
     2   Atom        0.000000      0.000000      0.000000
 --------------------------------------------------------
                        XY            XZ            YZ
 --------------------------------------------------------
     1   Atom        0.000000      0.000000      0.000000
     2   Atom        0.000000      0.000000      0.000000
 --------------------------------------------------------


 ---------------------------------------------------------------------------------
              Anisotropic Spin Dipole Couplings in Principal Axis System
 ---------------------------------------------------------------------------------

       Atom             a.u.   MegaHertz   Gauss  10(-4) cm-1        Axes

              Baa     0.0000     0.000     0.000     0.000  1.0000  0.0000  0.0000
     1 H(1)   Bbb     0.0000     0.000     0.000     0.000 -0.0000  1.0000  0.0000
              Bcc     0.0000     0.000     0.000     0.000  0.0000  0.0000  1.0000
 
              Baa     0.0000    -0.000    -0.000    -0.000  1.0000  0.0000  0.0000
     2 He(3)  Bbb     0.0000    -0.000    -0.000    -0.000 -0.0000  1.0000  0.0000
              Bcc     0.0000    -0.000    -0.000    -0.000  0.0000  0.0000  1.0000
 

 ---------------------------------------------------------------------------------

 Entering OneElI...
 OneElI was handed  4294967058 working-precision words.
 Calculate electrostatic properties
    NBasis =     4  MinDer = 0  MaxDer = 0
    NGrid  =     2  NMatD  =   1
 Requested accuracy = 0.1000D-12
 ShPair: Thresh= 1.00D-13 NBox=     0 BxSize= 0.00D+00 RnKept= 1.46D+00
         NSMCal=                   10 NSMKep=                  10
 PrmmSu-InSpLW:  IPartL=    0 NPrtUS=   12 NPrtUL=    1 DoSpLW=F IThBeg=    0 IThEnd=   11 NThAct=   12.
 PrSmSu:  IncTry=   512 NBBP=             20 NTPThr=   100 NPartT=   12 Incr=           1 LDynOK=F GPUOK=F.
 PrsmSu:  NPrtUS=  12 ThrOK=T IAlg=2 LenDen=           0 ISkipM=0 DoSpLW=F IThBeg=    0 IThEnd=   11.
 Prism:   IPart=     0 DynPar=F LinDyn=F Incr=           1.
 PRISM was handed   357912940 working-precision words and    10 shell-pairs
 PRISM was handed   357912940 working-precision words and    10 shell-pairs
 PRISM was handed   357912940 working-precision words and    10 shell-pairs
 PRISM was handed   357912940 working-precision words and    10 shell-pairs
 PRISM was handed   357912940 working-precision words and    10 shell-pairs
 PRISM was handed   357912940 working-precision words and    10 shell-pairs
 PRISM was handed   357912940 working-precision words and    10 shell-pairs
 PRISM was handed   357912940 working-precision words and    10 shell-pairs
 PRISM was handed   357912940 working-precision words and    10 shell-pairs
 PRISM was handed   357912940 working-precision words and    10 shell-pairs
 PRISM was handed   357912940 working-precision words and    10 shell-pairs
 PRISM was handed   357912940 working-precision words and    10 shell-pairs
 IPart=  8 NShTot=           0 NBatch=           0 AvBLen=         0.0
 PrsmSu-ThDecC:  IPartSL=    8    0 NPrtUSL=   12    1 IThBeg=    0 IThEnd=   11 CPU=   -1 GPU=   -1 NThAct=   12.
 IPart= 10 NShTot=           0 NBatch=           0 AvBLen=         0.0
 PrsmSu-ThDecC:  IPartSL=   10    0 NPrtUSL=   12    1 IThBeg=    0 IThEnd=   11 CPU=   -1 GPU=   -1 NThAct=   11.
 IPart=  2 NShTot=           6 NBatch=           3 AvBLen=         2.0
 PrsmSu-ThDecC:  IPartSL=    2    0 NPrtUSL=   12    1 IThBeg=    0 IThEnd=   11 CPU=   -1 GPU=   -1 NThAct=   10.
 IPart=  4 NShTot=           0 NBatch=           0 AvBLen=         0.0
 PrsmSu-ThDecC:  IPartSL=    4    0 NPrtUSL=   12    1 IThBeg=    0 IThEnd=   11 CPU=   -1 GPU=   -1 NThAct=    9.
 IPart=  0 NShTot=           6 NBatch=           3 AvBLen=         2.0
 PrsmSu-ThDecC:  IPartSL=    0    0 NPrtUSL=   12    1 IThBeg=    0 IThEnd=   11 CPU=   -1 GPU=   -1 NThAct=    8.
 IPart=  5 NShTot=           0 NBatch=           0 AvBLen=         0.0
 PrsmSu-ThDecC:  IPartSL=    5    0 NPrtUSL=   12    1 IThBeg=    0 IThEnd=   11 CPU=   -1 GPU=   -1 NThAct=    7.
 IPart=  7 NShTot=           0 NBatch=           0 AvBLen=         0.0
 PrsmSu-ThDecC:  IPartSL=    7    0 NPrtUSL=   12    1 IThBeg=    0 IThEnd=   11 CPU=   -1 GPU=   -1 NThAct=    6.
 IPart=  9 NShTot=           0 NBatch=           0 AvBLen=         0.0
 PrsmSu-ThDecC:  IPartSL=    9    0 NPrtUSL=   12    1 IThBeg=    0 IThEnd=   11 CPU=   -1 GPU=   -1 NThAct=    5.
 IPart=  6 NShTot=           0 NBatch=           0 AvBLen=         0.0
 PrsmSu-ThDecC:  IPartSL=    6    0 NPrtUSL=   12    1 IThBeg=    0 IThEnd=   11 CPU=   -1 GPU=   -1 NThAct=    4.
 IPart= 11 NShTot=           0 NBatch=           0 AvBLen=         0.0
 PrsmSu-ThDecC:  IPartSL=   11    0 NPrtUSL=   12    1 IThBeg=    0 IThEnd=   11 CPU=   -1 GPU=   -1 NThAct=    3.
 IPart=  3 NShTot=           2 NBatch=           1 AvBLen=         2.0
 PrsmSu-ThDecC:  IPartSL=    3    0 NPrtUSL=   12    1 IThBeg=    0 IThEnd=   11 CPU=   -1 GPU=   -1 NThAct=    2.
 IPart=  1 NShTot=           6 NBatch=           3 AvBLen=         2.0
 PrsmSu-ThDecC:  IPartSL=    1    0 NPrtUSL=   12    1 IThBeg=    0 IThEnd=   11 CPU=   -1 GPU=   -1 NThAct=    1.
 PrSmSu:  NxtVal=             13.
 --------------------------------------------------------
       Center         ----      EFG at Nuclei      ----
                      3XX-RR        3YY-RR        3ZZ-RR
 --------------------------------------------------------
     1   Atom        0.545758      0.545758     -1.091515
     2   Atom        0.318129      0.318129     -0.636257
 --------------------------------------------------------
                        XY            XZ            YZ
 --------------------------------------------------------
     1   Atom        0.000000      0.000000      0.000000
     2   Atom        0.000000      0.000000      0.000000
 --------------------------------------------------------


 ---------------------------------------------------------------------------------
              Nuclear Quadrupole Coupling Constant in Principal Axis System
 ---------------------------------------------------------------------------------

       Atom             a.u.   MegaHertz   Gauss  10(-4) cm-1        Axes


 ---------------------------------------------------------------------------------

 No NMR shielding tensors so no spin-rotation constants.
 Leave Link  601 at Mon Mar  8 10:20:41 2021, MaxMem=  4294967296 cpu:               0.9 elap:               0.1
 (Enter /opt/gaussian/gdv-20180628-i14+/gdv/l9999.exe)

 Test job not archived.
 1\1\GINC-NODE17\SP\CASSCF\6-31G\H1He1(1+)\KRANKA\08-Mar-2021\0\\#P CAS
 SCF(2,4,fulldiag,NRoot=16,SaveGEDensities)/6-31g scf(tight,maxcyc=100)
  nosymm scf(tight,maxcyc=1500,conventional) iop(3/33=6) extralinks(l31
 6,l308) noraff symm=noint iop(3/33=3) pop(full) iop(6/8=1,3/33=3,3/36=
 1,4/33=3,5/33=3,6/33=3,9/33=3,5/72=-3)\\CAS(2,2)SCF/STO-3G, S2 state s
 ingle point, pert. calc. (all density matrices printed)\\1,1\H,0,0.,0.
 ,-0.386\He,0,0.,0.,0.386\\Version=ES64L-GDVRevI.14+\HF=1.4273157\RMSD=
 0.000e+00\Dipole=0.,0.,-0.4714292\Quadrupole=-0.2162756,-0.2162756,0.4
 325513,0.,0.,0.\PG=C*V [C*(H1He1)]\\@


 Boundary, n.  In political geography, an imaginary
 line between two nations, separating the imaginary
 rights of one from the imaginary rights of another.
                               -- Ambrose Bierce
 Job cpu time:       0 days  0 hours  0 minutes 58.9 seconds.
 Elapsed time:       0 days  0 hours  0 minutes  5.3 seconds.
 File lengths (MBytes):  RWF=      6 Int=      1 D2E=      0 Chk=      2 Scr=      1
 Normal termination of Gaussian DV at Mon Mar  8 10:20:41 2021.
